ITEM: TIMESTEP
0
ITEM: NUMBER OF ATOMS
8788
ITEM: BOX BOUNDS pp pp pp
-1.1807980747 46.1807980747
-1.2327094182 46.2327094182
-1.2342488197 46.2342488197
ITEM: ATOMS id type x y z atomic_entropy ave_atomic_entropy csp cna voronoi_volume voronoi_number cavity_radius 
1 2 0.00611791 -0.310917 -0.345241 -6.045961899682454 -6.520932355225718 0.10069678346528724 1 12.681009686646542 15 3.675684382153428
2 4 1.9019 -0.292456 1.48488 -6.694110249731562 -6.731285131522435 0.13954401993834498 1 12.012946651253118 14 3.5817659957063537
3 3 -0.0156413 1.58432 1.43129 -6.8764117484971745 -6.720046622434956 0.09492911562804744 1 12.197214086840361 12 3.6744084720409824
4 5 1.86237 1.51117 -0.372278 -7.013986154344493 -6.996050103995529 0.0729986839384932 1 12.900968441567482 15 3.713116902387806
5 5 3.79257 -0.331891 -0.37583 -6.73249818065777 -6.900815295848978 0.04635816853943651 1 12.400860856810315 14 3.6454153154221167
7 2 3.81982 1.51825 1.45498 -7.059234237727097 -7.178312542135414 0.104315462596 1 12.133872491370143 14 3.584631829232206
53 1 -0.0152635 3.35832 -0.438609 -7.187101361172317 -7.020664294692576 0.03942656488186026 1 12.913041190025474 15 3.6756843821534257
54 3 1.85124 3.33194 1.37874 -7.282035138370277 -7.154522630798264 0.13575386930002997 1 12.508820530952727 13 3.641550894096965
57 3 3.80567 3.23906 -0.392132 -7.384251508928266 -7.527253420406053 0.14350191105852225 1 12.398261848438636 13 3.666501313357168
677 1 0.00292042 -0.197612 3.12983 -6.4194417724124255 -6.48691056505944 0.23074053340510442 1 11.886948037819035 14 3.570033636732194
680 2 1.92205 1.5872 3.16485 -7.243304535350027 -6.863264055033276 0.1823101207234266 1 12.194318455863222 14 3.570033636732197
681 1 3.82899 -0.282177 3.21418 -6.92456321339038 -6.967472557444944 0.07669838732925523 1 11.605652289143425 14 3.5765015553883748
729 3 0.014847 3.36076 3.18199 -6.885595769692794 -6.642489232890958 0.20080121407253387 1 12.657783559820844 15 3.636332125679341
733 2 3.83706 3.27385 3.28519 -7.459543854213379 -7.393781216876048 0.09644791240000031 1 12.21718210230712 14 3.621936906017053
678 2 1.98423 -0.184446 4.95687 -6.082634834493528 -6.610362255735088 0.25604331180848405 1 12.380737961712725 15 3.5618742824569343
679 5 0.0223006 1.5556 4.99584 -6.235282521731511 -6.506154550389583 0.0947237760235149 1 12.758456581870899 14 3.6034067262295664
683 2 3.846 1.49508 5.04492 -6.85429169878484 -7.113316487722385 0.051700267017999985 1 11.91611995971693 14 3.5668347414478507
730 3 1.94229 3.28132 5.09192 -7.205983141037588 -7.082489416292692 0.053134465922153734 1 12.485932483535018 14 3.61654369476387
1353 3 0.0127344 -0.132857 6.91195 -6.128709618510719 -6.454964177788527 0.14119451603980085 1 12.392972728056671 13 3.632367667225509
1354 3 1.90869 -0.253617 8.74414 -6.701660851673349 -6.595937783683117 0.0632111964017141 1 12.159127345459021 14 3.4967704971937814
1355 3 0.0404216 1.48172 8.72936 -6.256357963287311 -6.5698714409602905 0.12984077525388996 1 12.323382730575604 14 3.61718646659456
1356 2 1.95346 1.48216 6.90495 -6.794126787609599 -6.779252907188189 0.06383790953152034 1 12.279309373334039 14 3.5796665351933514
1357 2 3.86994 -0.275343 6.88531 -6.664699869455215 -6.892467345199598 0.103579390051851 1 12.015012446661332 14 3.520838752327697
1359 2 3.83323 1.46307 8.72536 -7.860902403686684 -7.252090939427675 0.024323892442999793 1 12.10350999504641 14 3.5747608565915905
1405 2 0.0590932 3.27807 6.94932 -6.362562937149716 -6.65844819467855 0.1798380040886925 1 13.00289168579852 14 3.6440494432884827
1406 2 1.93281 3.2211 8.75447 -7.217536987353928 -7.220891220317489 0.039344671023832836 1 12.501926613586434 14 3.651035296210467
1409 2 3.82654 3.22986 6.86804 -7.765538178672478 -7.509416192573758 0.0660868622000008 1 12.162344931167455 14 3.640974325799673
2033 2 3.83768 -0.298176 10.5554 -6.475265928527629 -6.808172116183704 0.07310764956397386 1 11.987383958739443 14 3.541449334773969
2032 2 1.95983 1.47274 10.5822 -7.033802280680578 -6.911423909462158 0.09032118923044394 1 12.422054020540958 14 3.561266320026144
2029 5 -0.0327765 -0.244715 10.6026 -6.574377514984759 -6.395434747249322 0.04889175682804707 1 12.64191607899027 14 3.545200850493664
2085 2 3.80543 3.23299 10.6136 -7.795912919265239 -7.626839861717619 0.01433016539999989 1 12.23539260946669 14 3.6177740994056053
2081 5 0.00850132 3.20995 10.6321 -6.633716762567714 -6.808393087970662 0.09494498427963972 1 12.944603289026867 14 3.6171864665945614
2030 2 1.88542 -0.25183 12.4547 -6.550267001027131 -6.489522711528023 0.04400616890056702 1 12.538166594228148 14 3.538214325395755
2031 2 -0.00353054 1.46726 12.5646 -6.257861972729661 -6.5837156061443585 0.2454662237430809 1 12.625758434175015 14 3.5696899039937398
2758 2 1.8927 3.2484 16.2177 -7.35107798339811 -7.3445873004861255 0.05024639304246004 1 12.613652534411202 14 3.6211517512449105
2757 2 -0.0439754 3.25599 14.3555 -6.911574988210481 -6.8937133244126105 0.0727070188532722 1 12.712186295617089 14 3.62480527873951
2035 2 3.81516 1.46139 12.4163 -7.2001796041576 -7.188984017559857 0.10263271200400054 1 12.42092070612582 14 3.5629178651399123
2761 5 3.76109 3.18523 14.3471 -7.787135679651122 -7.570914893947156 0.08289188850000026 1 12.707199518374553 14 3.6248359043406206
2082 2 1.90468 3.21585 12.4846 -7.290668633066473 -7.211899150835832 0.027339197722083812 1 12.614666229561452 14 3.608425271218316
2711 3 3.78457 1.45378 16.216 -7.760841752181589 -7.305873758901883 0.06511324969200166 1 12.350624020921185 14 3.6372646237587585
2705 3 -0.0703092 -0.307493 14.3406 -6.2273862380931595 -6.316048112447314 0.09250805117434845 1 11.932662832080739 14 3.5702400895410626
2706 1 1.8625 -0.36637 16.1752 -6.629697913933371 -6.561700449808821 0.11636733165949516 1 12.33648931241559 14 3.621151751244913
2707 2 -0.0356085 1.43666 16.1611 -6.526545269999332 -6.652910173339042 0.11028660153980452 1 12.633982233495532 14 3.621151751244914
2708 2 1.8261 1.44134 14.3957 -6.802898270680029 -6.962163410048071 0.19790599166413997 1 12.528617485212415 14 3.621081014613133
2709 5 3.79391 -0.278748 14.326 -7.211989023496846 -6.740396857026718 0.08756582482642494 1 12.630638363512647 14 3.599839467276618
3381 2 -0.0434702 -0.31871 17.9993 -6.0084298795839395 -6.245979568585615 0.1457753930231581 1 12.430720148020406 14 3.5702585093043666
3382 2 1.88518 -0.348707 19.8979 -6.409195605212712 -6.464944410027404 0.07112237400695358 1 12.789845321254273 14 3.630022042298
3383 2 -0.0798807 1.41652 19.9363 -6.81612623602504 -6.671107554433073 0.13349483862106626 1 13.06325177062319 14 3.6600098423985137
3384 5 1.85194 1.44755 18.0192 -7.2082717087500665 -7.007141578108011 0.04822903787938828 1 12.862178252286423 14 3.637866701411059
3385 5 3.76928 -0.377938 18.0068 -6.604388687562919 -6.733247085674181 0.06704675352624125 1 12.536241921419588 14 3.6378667014110566
3387 2 3.81501 1.48693 19.8627 -7.390640853719766 -7.276635735527621 0.09301575781000035 1 12.613921755016438 14 3.6378667014110566
3433 2 -0.0763681 3.22961 18.1128 -7.247328824754231 -7.053549738765961 0.12414683992893172 1 12.870488359953804 14 3.62182154863326
3434 5 1.87171 3.26642 19.9084 -7.3748183354318675 -7.337184746994548 0.06870788143698973 1 12.843852866338512 15 3.6300220422980036
3437 2 3.80135 3.25171 18.0164 -7.765477464851198 -7.73605837521069 0.05087792989999923 1 12.35211971493807 14 3.637866701411055
4057 5 -0.0768574 -0.382847 21.8118 -6.092146631396678 -6.320116377683248 0.19640053199629653 1 12.9147999377459 14 3.644088057169233
4060 2 1.87195 1.45492 21.7233 -7.216905720524162 -6.998839274718899 0.07286229887824842 1 12.78790759360156 14 3.641669423856426
4061 5 3.76129 -0.347351 21.7112 -6.6148798337252686 -6.755048019267396 0.024960361745905026 1 12.383555308755824 14 3.6253070015318
4109 2 -0.108598 3.33302 21.6624 -6.955546817775383 -6.933125530155187 0.16894452046644454 1 12.650749967272851 14 3.642953108226733
4113 2 3.81531 3.2621 21.7065 -7.73328847148813 -7.542475673856289 0.09380674109999655 1 12.23140271294012 14 3.617393392573657
4058 2 1.87758 -0.346708 23.6025 -6.365863896334829 -6.777784471985593 0.12364590996859902 1 12.455447495114392 14 3.5939210637266488
4059 5 -0.037068 1.55747 23.5667 -7.243741908407756 -6.773098993099483 0.09144131368159161 1 12.850702414504749 15 3.6440880571692302
4063 2 3.80118 1.46536 23.5052 -7.674860225668764 -7.130508677297813 0.040946840189998925 1 12.234489057312988 13 3.635740129409243
4110 2 1.89211 3.31294 23.414 -7.09689603563533 -7.258009915428641 0.15031814830713297 1 12.572053707167392 13 3.6108092990197505
4733 2 -0.0689762 -0.29492 25.3765 -6.773758328322817 -6.656502207129099 0.06723096122171324 1 12.284991198554843 14 3.586736708324076
4734 5 1.87425 -0.293763 27.133 -6.88278410652634 -6.8209710367747585 0.05000560230341293 1 12.7585836018447 15 3.6461196709633423
4735 2 -0.054222 1.6214 27.0823 -6.697131448837379 -6.863260838642798 0.12315978238843066 1 12.703941531576636 14 3.6451285543306216
4736 2 1.88111 1.55182 25.3048 -7.614506268569871 -7.141840165746682 0.06429212498332891 1 12.72711805969066 15 3.646119670963339
4737 2 3.8021 -0.317865 25.3043 -6.674160398701174 -7.0295122007790445 0.07639428797493113 1 12.094684212447614 15 3.6362226302954515
4739 5 3.79977 1.5235 27.144 -7.701161177405386 -7.212718196458066 0.0769581525319983 1 12.697980730607906 15 3.649706839929348
4785 2 -0.0457783 3.391 25.3178 -7.191060950404767 -6.906043826177844 0.10159316577307405 1 12.612018066914063 13 3.6627509330016093
4786 2 1.85618 3.35576 27.1562 -7.458009506848079 -7.345820405267846 0.05124310496481794 1 12.73364775646056 13 3.6900029456277
4789 5 3.81265 3.30963 25.244 -7.4699879030443945 -7.3902547956733855 0.09014939839999936 1 12.678618219216514 16 3.700706063586699
5409 5 -0.0935809 -0.238535 28.8997 -6.658266051458038 -6.684813103585233 0.1050313086900648 1 12.773171700672727 15 3.665948963857905
5410 5 1.86779 -0.320263 30.689 -6.866272395649284 -6.808230866240027 0.10580857270943039 1 13.01359337623947 14 3.674933520779121
5411 2 -0.0467821 1.59773 30.7579 -7.2642184052636685 -7.0413411987090955 0.03985681109547452 1 12.991816971660711 14 3.711356045320419
5412 2 1.84132 1.61952 28.9408 -7.167697075089873 -7.170764415674572 0.16434276527505967 1 12.795635352101662 15 3.6749335207791245
5413 2 3.81088 -0.367193 28.9182 -6.136026769054532 -6.997971696583656 0.20498694564450143 1 12.31734710971479 15 3.6619320669800848
5415 5 3.78015 1.51754 30.7209 -7.5790760593296485 -7.36396459367497 0.07636945794299835 1 12.950479028851351 16 3.7407868081305735
5461 2 -0.0552228 3.4003 28.9701 -7.266739756656568 -7.113553189928549 0.043322443935936095 1 12.53010188809885 14 3.645128554330621
5462 2 1.85006 3.38347 30.7705 -7.682740915746114 -7.594450031975421 0.03961070953675104 1 12.562943769653822 13 3.6937472931693356
5465 2 3.79286 3.38017 28.9588 -7.859813735904505 -7.64801425433862 0.0669738678000005 1 12.456285628132125 14 3.6462521964020547
6085 5 -0.0334875 -0.335995 32.5567 -6.845868363200863 -6.891734242332715 0.07797441963350357 1 13.013806544438996 14 3.7113560453204197
6088 2 1.84877 1.51815 32.6074 -7.749635992080859 -7.335054548570404 0.03869750684714918 1 13.145583301954993 16 3.7407868081305757
6089 5 3.77813 -0.386201 32.5989 -6.596112170457143 -7.098792556282395 0.10470273913469258 1 12.786452799816974 15 3.7407648307175774
6137 5 -0.0110515 3.38952 32.6589 -7.367798514158155 -7.335119690132299 0.10935943405271287 1 12.858654320070238 14 3.711061676863669
6141 5 3.72362 3.38139 32.5932 -7.791729396732875 -7.899412782133345 0.028803530899999687 1 12.791491929081733 16 3.7407868081305717
7437 2 -0.0138154 -0.543811 39.7145 -6.26309851578334 -6.504056016005313 0.3187942281388591 1 12.338437265024627 14 3.621094731187248
7440 2 1.92626 1.4158 39.7685 -7.547067652923484 -7.383127995078198 0.08988488466550949 1 12.556948389802216 14 3.645485382802292
7493 5 3.7571 3.28939 39.7757 -8.162116964478246 -8.041234627782 0.015324983799999343 1 12.387632507416999 14 3.644714568350451
7489 2 0.0361423 3.30944 39.7634 -6.730865196339658 -6.817015381020818 0.16636950249093374 1 12.434411632630246 14 3.559737022289985
7441 5 3.76771 -0.437704 39.7941 -7.662339347945162 -7.30661649018545 0.01705319085763588 1 12.475559997420698 15 3.645637341634127
6761 2 0.0167867 -0.437963 36.2711 -6.8675416619748635 -6.7470762235600255 0.13339224148145148 1 12.719603182738258 14 3.67734735776941
6762 2 1.8815 -0.441975 37.9865 -7.578375382916775 -6.985691917686084 0.04530826547494182 1 12.380623347405372 14 3.59511298071235
6763 2 0.0268725 1.4062 38.0816 -6.984734545665075 -6.857004239897373 0.14777981197262208 1 12.462178199012095 14 3.6289566004989693
6764 2 1.86508 1.44758 36.2602 -7.620689588125179 -7.45963681678639 0.028310009141347917 1 12.47596832722732 14 3.6570165578768994
6765 2 3.7629 -0.43848 36.2178 -7.199472245778867 -7.310699387002165 0.05774849316914622 1 12.189949678408531 15 3.6284175006022217
6767 2 3.75681 1.43021 37.9524 -8.003794104997887 -7.841918629744447 0.07352020635000751 1 12.338147917673895 14 3.645637341634132
6813 5 -0.00709264 3.32858 36.2832 -7.367651974340059 -7.150565608157813 0.038553079420863626 1 12.847189430989731 14 3.6801605935814115
6814 2 1.90076 3.31775 38.0086 -7.696772159698765 -7.601113192827465 0.01852301103619948 1 12.323202695431371 14 3.5599687460253944
6817 2 3.72543 3.35248 36.2413 -8.043990035928982 -8.024537244516974 0.04157022650000296 1 12.225266063912956 14 3.651167653208319
6091 5 3.72751 1.47437 34.4603 -7.747064016072167 -7.594264512772167 0.04171813734599403 1 12.838333193353463 14 3.740786808130573
6087 2 0.0287418 1.48125 34.4625 -7.188148694325242 -7.176928370410402 0.11412292758871337 1 13.08274677155654 15 3.715325036663665
6086 2 1.85351 -0.412198 34.4514 -7.14162643469054 -7.005750791755295 0.11672594894506005 1 12.69764905741576 14 3.669336057719542
6138 2 1.87489 3.37325 34.466 -7.5354177737086845 -7.658544788482526 0.045212432421421284 1 12.640325692725149 14 3.693770982587756
7438 2 1.8992 -0.476812 41.57 -6.947025331680467 -6.859993655138679 0.08345550879695814 1 12.66793170837823 14 3.6650300717226227
7439 5 -0.0321609 1.3755 41.468 -6.83766773369419 -6.763018023488851 0.1546915974902741 1 13.004300039713593 14 3.724068440145065
7443 2 3.7673 1.44236 41.5963 -8.02409635545212 -7.743989970045883 0.022323271549999347 1 12.402405769751255 15 3.645637341634129
7490 2 1.90107 3.29059 41.5567 -7.542710644441388 -7.5051239589157275 0.04234569532993892 1 12.456610519914019 14 3.609600523782876
8113 5 -0.0285641 -0.436798 43.3935 -6.485200506686266 -6.578478324643612 0.11109181841031658 1 12.841543024232728 14 3.7240843885666908
8114 2 1.87017 -0.407408 45.2435 -6.346273782059811 -6.686004411389884 0.10903806748826236 1 12.817733369623454 14 3.713116902387807
8115 5 -0.0614586 1.48203 45.1894 -7.274836873462218 -6.89474137578625 0.04660768859551663 1 13.268608519999066 14 3.724084388566693
8116 2 1.90826 1.43314 43.3395 -7.4365377391523815 -7.245439171767642 0.07944062951257821 1 12.979867793124509 14 3.7240843885666868
8117 5 3.76322 -0.416251 43.437 -7.05776806141882 -7.032627574514693 0.03482078429841444 1 12.487792558657194 14 3.6606834056147797
8119 2 3.79215 1.46749 45.2289 -7.623728714256156 -7.384839834843879 0.0701447440172848 1 12.621562410960772 16 3.7106001024806714
8165 5 -0.063256 3.28 43.2562 -7.207903465954877 -7.073931839306022 0.12238143720275378 1 13.109708948739367 14 3.7240843885666886
8166 5 1.89453 3.29913 45.1498 -7.428221503052284 -7.417185668113766 0.06501055903137357 1 13.030726108699449 15 3.7131169023878066
8169 2 3.75161 3.28459 43.3515 -7.978738521668377 -7.920186427155287 0.055232472699998 1 12.26699720273616 13 3.6396163485959554
55 5 -0.0157053 5.23244 1.39099 -6.591216140202445 -6.585005553015401 0.19753271779311493 1 13.055159724236226 13 3.641550894096962
56 5 1.89058 5.14393 -0.4708 -7.280847071300213 -7.245151686431471 0.049237500174099745 1 12.930029045348899 14 3.6681700180970775
59 5 3.81298 5.0707 1.40322 -7.518687540740562 -7.545189463204013 0.08166100861399958 1 12.71037650470048 16 3.668170018097072
105 2 -0.0531128 6.95511 -0.572635 -6.301124180633201 -6.800697609081159 0.17152360137848024 1 12.496883217319478 15 3.612404943368368
106 2 1.95386 6.9632 1.3858 -6.858936094191822 -7.078674672732388 0.21908097584395325 1 12.708508375206549 14 3.642142123934634
107 2 -0.0396142 8.58582 1.32639 -6.546539749674946 -6.606689010176315 0.1986726092154541 1 12.41423805576652 14 3.625492753515856
108 2 1.85302 8.66645 -0.484933 -7.546870860747722 -7.339563480485679 0.08544013365218972 1 12.380742968840472 14 3.6077481432401854
109 2 3.77254 6.98089 -0.440267 -7.672121536986294 -7.7454722536260805 0.13444646193976742 1 12.490308686092307 15 3.668170018097075
111 2 3.78871 8.71039 1.43624 -7.718818083027428 -7.762235619524161 0.06836288034700003 1 12.240991162072358 14 3.642142123934634
732 5 1.93675 5.11064 3.27465 -7.226579139838388 -7.10329091744064 0.02969436488946781 1 12.93625414711142 14 3.6415508940969654
781 2 -0.000493287 6.97873 3.27934 -5.869117131090995 -6.398934235143167 0.2500837773379547 1 12.549203186386231 14 3.6363321256793437
784 5 1.94789 8.65456 3.28839 -7.278565153253748 -7.199487044588898 0.1468760422707941 1 12.589404941168887 14 3.613820507554434
785 2 3.85337 6.88704 3.29521 -7.613348063833274 -7.7715196805315445 0.11261762329999991 1 12.381538967627403 15 3.6436081756985645
833 5 -0.0852605 10.3208 3.24036 -7.011628054491486 -6.89617991597387 0.09336561149743719 1 12.87213749987022 14 3.655239957293179
161 5 3.67393 10.5058 -0.425357 -7.604549887170917 -7.7732875454780475 0.015165026251664904 1 12.403727353423614 14 3.6046529811442203
837 2 3.73606 10.4968 3.28377 -7.965372999137238 -8.015569424605491 0.04662387260000059 1 12.096488513873334 14 3.6138205075544327
158 2 1.82915 10.4406 1.40738 -7.5390542242136815 -7.554214983336021 0.02847870167812991 1 12.601990378161988 14 3.6179513633784794
157 5 -0.0977718 10.421 -0.451918 -7.47124901801759 -7.081137331323155 0.06747041656192966 1 12.586206802927986 15 3.624018606601727
731 5 0.00948256 5.12778 5.09081 -6.839796746409013 -6.574310635256448 0.07123910717298385 1 13.117911432422176 14 3.6440494432884845
735 2 3.83603 5.04621 5.12312 -7.830742351865062 -7.692275380571015 0.04676984819999995 1 12.189577716119189 15 3.6436081756985628
782 2 1.98431 6.8834 5.17071 -7.161200815242741 -7.274339370003645 0.16296983989258704 1 12.454203527330233 14 3.643608175698563
783 2 0.0385334 8.62583 5.18128 -6.388224657584397 -6.609307219284379 0.2689655531329791 1 12.245362359820309 14 3.576163136335274
787 2 3.79371 8.68944 5.13208 -8.265375756366227 -7.995605683803067 0.024739975099999735 1 12.04920273116485 15 3.6436081756985628
1407 5 0.0077643 5.08472 8.79845 -7.111337793590996 -6.9160143512860195 0.045581782526252654 1 12.977894056840157 14 3.6510352962104684
1408 2 1.94315 5.05468 6.92449 -7.369014749450578 -7.35149274613086 0.033852752241373886 1 12.585734105366097 14 3.651035296210469
1411 5 3.78785 5.02723 8.77016 -8.073441573657892 -7.8607004477446685 0.010459726199999703 1 12.513760305135513 14 3.645694501065449
1457 2 0.0250693 6.90291 6.9786 -6.921689050630804 -6.833583740865355 0.07176431530695616 1 12.673345467978955 14 3.6440494432884827
1458 2 1.93738 6.86528 8.80751 -7.525384444898617 -7.6136998310024335 0.06589291765772062 1 12.641833981387068 14 3.651035296210467
1459 5 -0.0420707 8.6199 8.86873 -7.374851069308343 -7.123689217976689 0.10024328997431792 1 12.775803999151144 15 3.6181645913972487
1460 2 1.94959 8.64267 6.97003 -7.617581264740402 -7.542503428265371 0.09996415764382902 1 12.321096310943455 14 3.621175060734908
1461 2 3.81214 6.86724 6.94588 -8.185176929741772 -7.975973221292789 0.03160657999999975 1 12.158721297035164 15 3.643542494534586
1463 2 3.77751 8.64845 8.8026 -8.119705791566766 -8.072172305657181 0.047942063599999175 1 12.235757852199955 14 3.636388463859598
1509 2 -0.0216473 10.3809 6.95334 -6.923589456527203 -7.035922817994665 0.08219446062544239 1 12.528804939970417 14 3.6211750607349065
834 2 1.87863 10.4469 5.15147 -7.377150797547679 -7.57930788741341 0.07973273298109887 1 12.299772172922271 14 3.619948570843971
1510 5 1.8729 10.4711 8.801 -7.909536549826319 -7.78964428192157 0.05223763026251982 1 12.662200784130718 15 3.646854492830663
1513 2 3.71972 10.4849 6.94623 -8.28307798346854 -8.073538099158586 0.022219459699999902 1 12.264992939732693 14 3.635937337005116
2083 2 -0.0102313 4.98998 12.5148 -7.1591034893215575 -7.131585252919706 0.06606852709155078 1 12.908985125952883 14 3.6930424784895854
2185 2 -0.0605115 10.4873 10.6567 -7.4590116056571745 -7.361426771911379 0.08708413009979807 1 12.494090663011313 13 3.6468544928306628
2087 2 3.77359 5.00597 12.443 -7.8294618347754605 -7.817780575209985 0.0437629313000006 1 12.468415750999618 14 3.680263186833247
2134 5 1.88614 6.8165 12.4843 -7.478048943094196 -7.615867118756777 0.04499565900919027 1 12.849217399709419 14 3.692966864931426
2135 5 -0.0635914 8.67829 12.4662 -7.257054317591553 -7.343657770568049 0.07017024786044368 1 13.135313106762247 15 3.693147329514671
2861 5 -0.079559 10.5019 14.349 -7.464036757721775 -7.217029481100928 0.08712770168031171 1 12.849846670962807 15 3.6835967133008936
2815 5 3.7191 8.68044 16.1558 -7.8480609637631025 -7.584611221581814 0.04045496419999944 1 12.98666217833111 15 3.6937495631513624
2139 2 3.70806 8.68514 12.4857 -8.128958436618369 -7.936859197516393 0.025089198200000405 1 12.459490195292254 15 3.6802631868332516
2759 5 -0.0383812 4.99317 16.2446 -7.13540246990312 -7.250449371552809 0.09014645444872829 1 13.022326358344621 14 3.6681703591017834
2760 2 1.88335 4.99317 14.3459 -7.455037998605264 -7.467286017835728 0.03716886516357984 1 12.69117966381257 14 3.683482422783756
2763 2 3.7538 5.05752 16.2193 -7.910968737479294 -7.7602786334903815 0.048342209100000616 1 12.457645308974467 14 3.6326458065506357
2809 5 -0.0647323 6.82577 14.3705 -7.380757460972737 -7.284385507196362 0.02083054391861827 1 13.34473927047432 16 3.6960484881896214
2810 2 1.87577 6.81487 16.1797 -7.443732941655735 -7.575446046150589 0.06191355113449967 1 12.775861134484948 13 3.683137650238212
2811 2 -0.0937291 8.66806 16.183 -7.588012920697437 -7.264476843143039 0.07366078149012029 1 12.961879596373365 13 3.682061642418498
2812 2 1.85354 8.67157 14.3505 -7.696187855682608 -7.602818635219335 0.07059703774506039 1 12.925958960713608 14 3.6834824227837566
2813 2 3.71661 6.8029 14.3202 -7.941747071730908 -7.846907181800969 0.07180756669999958 1 12.661486087370395 13 3.6802631868332494
2186 2 1.85352 10.4923 12.4759 -7.812800121266184 -7.706094423897921 0.07063158178737008 1 12.461235082809191 15 3.681248803790968
2133 2 -0.0499865 6.78508 10.6826 -7.318936673885638 -7.199570171690524 0.12233092164180613 1 12.896870676306913 14 3.6931473295146735
2865 2 3.64556 10.5505 14.3007 -7.787866037865906 -7.629660941492459 0.05578404719999942 1 12.398785534484304 13 3.6710537368368104
2084 2 1.92262 5.01453 10.6358 -7.597334527154624 -7.475226006208019 0.032571190391372615 1 12.672725358656706 14 3.6508761688675593
2136 2 1.90914 8.65383 10.652 -7.616590436333274 -7.726533887954927 0.0851730975209502 1 12.69729954500978 15 3.6807231668864078
2137 2 3.77102 6.84737 10.6392 -8.147053498071909 -7.971559585958596 0.01712909520000012 1 12.305870190163299 13 3.680233329884068
2189 2 3.70831 10.4992 10.643 -8.29700865529571 -8.005119864335708 0.021189254700000226 1 12.30020673764252 13 3.6511105694685098
2862 2 1.80064 10.615 16.097 -7.00937842919084 -7.158659567575632 0.10771821571105894 1 12.66877216817357 15 3.6731399153727464
3435 2 -0.0972717 5.06316 19.8338 -7.0704135176075775 -7.060171169401348 0.07865584517388471 1 12.68250934019353 13 3.6374552118739136
3436 2 1.88925 5.05626 18.0517 -7.617073757855789 -7.403417189408115 0.046854711714900424 1 12.587340324048625 14 3.640292690833848
3439 2 3.79793 5.05187 19.8575 -7.774886581283151 -7.659322424019243 0.05018640510000036 1 12.273028611920525 14 3.6272162082718937
3485 2 -0.0479464 6.85723 18.0281 -7.410816219424261 -7.202615354029545 0.07624181970611124 1 12.978063680295172 14 3.6681703591017834
3486 2 1.86726 6.853 19.8452 -6.6707338032757475 -7.211966022551805 0.14312378709093954 1 12.870774119412463 14 3.645271846764857
3487 5 -0.125559 8.82462 19.809 -6.822290252535943 -6.720175289286024 0.11340255456609433 1 13.298741866475652 15 3.6917179599508483
3488 5 1.82152 8.69123 17.9942 -7.581307376801988 -7.150740605178907 0.08472030586977145 1 13.276658244758032 15 3.673139915372743
3489 2 3.75359 6.83685 18.0514 -7.471692825385396 -7.649496676257826 0.07358646020000151 1 12.430060092239188 14 3.6518750648005884
3491 2 3.7361 8.74043 19.8021 -7.423193667965425 -7.079620915110768 0.08970889589999997 1 12.89463349501282 14 3.708395341364515
4112 2 1.90002 5.10828 21.6605 -7.212623420862743 -7.1397126170668725 0.058340787705228964 1 12.609310965092352 13 3.617021942164764
4161 5 -0.0915153 6.92912 21.6567 -6.97289340144023 -6.686168941798159 0.12182196810208426 1 13.37695214781921 15 3.6527607149402757
4164 5 1.86627 8.88418 21.5706 -6.747616210871093 -6.5652451139969505 0.2026701810481037 1 13.356850240384976 14 3.7276563126772975
4165 2 3.79335 6.91077 21.5943 -6.980017257864123 -7.401024366153889 0.1168497362999987 1 12.539203085199578 15 3.693301924278678
3537 5 -0.113601 10.6259 17.8725 -6.597656691920961 -6.740204907897581 0.2032614991525059 1 12.81875199974186 14 3.6731399153727398
4111 2 -0.0653985 5.08244 23.4427 -6.5047227205717535 -6.893640021213694 0.26799947573733796 1 12.758672248787388 13 3.659798255620651
4115 2 3.8286 5.12948 23.4209 -7.24080568500529 -7.43943609212326 0.10416119330000004 1 12.440080223693737 14 3.700273738535351
4162 5 1.9117 6.99195 23.4334 -7.228617973628036 -6.920509884912054 0.08784407704955992 1 13.40953313551697 15 3.7276563126772975
4163 5 -0.0889999 8.96495 23.4345 -5.7333949717516335 -6.368998564322179 0.43589718046297266 1 13.09046285971475 14 3.7276563126772966
4167 5 3.75842 8.89001 23.4563 -7.2224791409450235 -6.947607504217473 0.08256592590000014 1 12.909008657002499 16 3.7219613877470072
4787 5 -0.0581003 5.19879 27.1709 -6.857023878691594 -7.0423956284921445 0.1095239033859026 1 13.002501807438266 14 3.6900029456277004
4788 5 1.88213 5.13442 25.2584 -7.199182772613996 -7.185898598716719 0.06696633838643667 1 13.251860142480911 14 3.7179437663577675
4791 5 3.80366 5.1615 27.1404 -7.474380610830618 -7.586738959268219 0.06063968839999864 1 12.841327730778907 15 3.7007060635866953
4837 5 -0.0585739 7.03828 25.2335 -7.192893869901099 -6.695592294677413 0.16756413196806436 1 13.455958229021718 15 3.718590007832259
4838 5 1.89316 7.03985 27.1449 -7.213238451693683 -7.20745748736834 0.07857773735154053 1 13.223730751103583 15 3.718590007832261
4839 5 -0.0981218 8.82892 27.1562 -6.6820860735098 -6.661642475901255 0.04939387905357694 1 12.983367533270725 14 3.6492663902932074
4840 2 1.87734 8.91799 25.2961 -6.441519653952955 -6.741415549632321 0.16857897773045868 1 12.94262641476651 13 3.7275592340434662
4841 2 3.80513 7.0065 25.2815 -7.2898614244487145 -7.443240031546991 0.0684042379 1 12.839706436197023 16 3.7141777381219625
4843 2 3.72824 8.85915 27.121 -7.7209254068408 -7.396587775283073 0.06249733880000085 1 12.319719712021264 14 3.6985642460824595
4890 2 1.81275 10.6151 27.1841 -6.783045841593398 -6.744081764411324 0.05446821431549105 1 12.073154742395026 14 3.5937507465070277
5463 2 -0.0242685 5.18703 30.7804 -7.58119771636972 -7.360101392374345 0.08312026526911423 1 12.337296481926547 14 3.6031473116967825
5464 2 1.88464 5.17263 28.9918 -7.538970183584962 -7.537122345880399 0.049620412291182386 1 12.537471957915695 14 3.6885530257009793
5467 2 3.74231 5.19956 30.7468 -8.094395954298239 -8.027227487504842 0.03473681060000006 1 12.233558775569858 14 3.6393683864200987
5513 2 -0.051919 6.98407 29.0285 -7.108255552025992 -7.148975785237824 0.05173554872096662 1 12.601071786030719 14 3.644088221714852
5514 2 1.85113 6.97587 30.7872 -8.056555201842341 -7.828810314801701 0.017816549645341292 1 12.123744862863155 13 3.6362488135098476
5515 2 -0.0472785 8.74623 30.8554 -7.53607595200921 -7.218221569405921 0.028689567913010236 1 12.234643798894488 14 3.6018515404388007
5516 2 1.83649 8.80265 29.0249 -7.1873404257414455 -7.367202399106296 0.04240445366184888 1 12.360457112703077 15 3.6368923693244026
5517 2 3.75177 7.02518 28.9789 -7.791269031952765 -7.913970097301481 0.0513717922999999 1 12.329555561866615 14 3.6985657309867057
5519 2 3.6878 8.78407 30.7994 -8.436133927711655 -8.009731470882743 0.005886956599999714 1 12.0101361399585 15 3.600295234179163
6140 2 1.85315 5.21148 32.6079 -7.783836710465282 -7.8376477660624655 0.03049197803929998 1 12.362807608828678 14 3.693770982587755
6189 2 -0.0465872 6.94233 32.6311 -7.693050037064651 -7.57103369322872 0.03986325336363333 1 12.204601751348967 13 3.592109899740447
6192 2 1.82093 8.73979 32.608 -8.44959624021892 -7.957187090742485 0.023579076510891306 1 12.0134787540486 14 3.594745039378448
6193 2 3.70501 6.96889 32.5839 -8.517857159136918 -8.338961740865994 0.016040380199999572 1 12.035466694167603 13 3.6053205634591623
5569 2 3.65028 10.5972 28.9921 -7.492745820218656 -7.417918091156811 0.010287729000000582 1 11.963725503420264 14 3.580325726328998
5566 2 1.79404 10.5705 30.8242 -7.4943141419933 -7.4000867784893 0.014866101528459809 1 11.821133278350558 14 3.587541345231615
6245 2 3.62799 10.5704 32.606 -7.673271907312865 -7.72195916127525 0.012044456300000669 1 11.841357278826923 14 3.5934519023530833
6241 2 -0.0464174 10.548 32.6221 -7.11875113827179 -7.18841604487039 0.026055982783375425 1 11.905081298162333 14 3.5784768243313243
5565 2 -0.0529144 10.5755 29.0567 -6.2716453612488205 -6.758017378506332 0.11329050060216436 1 12.24648210360192 15 3.6060042375721455
6143 2 3.7123 5.19604 34.4321 -8.236871283418015 -8.17367144374331 0.022909686599998622 1 12.151489649642873 14 3.648686692168555