ITEM: TIMESTEP
0
ITEM: NUMBER OF ATOMS
8788
ITEM: BOX BOUNDS pp pp pp
-1.1807980747 46.1807980747
-1.2327094182 46.2327094182
-1.2342488197 46.2342488197
ITEM: ATOMS id type x y z
1 2 0.00611791 -0.310917 -0.345241
2 4 1.9019 -0.292456 1.48488
3 3 -0.0156413 1.58432 1.43129
4 5 1.86237 1.51117 -0.372278
5 5 3.79257 -0.331891 -0.37583
7 2 3.81982 1.51825 1.45498
53 1 -0.0152635 3.35832 -0.438609
54 3 1.85124 3.33194 1.37874
57 3 3.80567 3.23906 -0.392132
677 1 0.00292042 -0.197612 3.12983
680 2 1.92205 1.5872 3.16485
681 1 3.82899 -0.282177 3.21418
729 3 0.014847 3.36076 3.18199
733 2 3.83706 3.27385 3.28519
678 2 1.98423 -0.184446 4.95687
679 5 0.0223006 1.5556 4.99584
683 2 3.846 1.49508 5.04492
730 3 1.94229 3.28132 5.09192
1353 3 0.0127344 -0.132857 6.91195
1354 3 1.90869 -0.253617 8.74414
1355 3 0.0404216 1.48172 8.72936
1356 2 1.95346 1.48216 6.90495
1357 2 3.86994 -0.275343 6.88531
1359 2 3.83323 1.46307 8.72536
1405 2 0.0590932 3.27807 6.94932
1406 2 1.93281 3.2211 8.75447
1409 2 3.82654 3.22986 6.86804
2033 2 3.83768 -0.298176 10.5554
2032 2 1.95983 1.47274 10.5822
2029 5 -0.0327765 -0.244715 10.6026
2085 2 3.80543 3.23299 10.6136
2081 5 0.00850132 3.20995 10.6321
2030 2 1.88542 -0.25183 12.4547
2031 2 -0.00353054 1.46726 12.5646
2758 2 1.8927 3.2484 16.2177
2757 2 -0.0439754 3.25599 14.3555
2035 2 3.81516 1.46139 12.4163
2761 5 3.76109 3.18523 14.3471
2082 2 1.90468 3.21585 12.4846
2711 3 3.78457 1.45378 16.216
2705 3 -0.0703092 -0.307493 14.3406
2706 1 1.8625 -0.36637 16.1752
2707 2 -0.0356085 1.43666 16.1611
2708 2 1.8261 1.44134 14.3957
2709 5 3.79391 -0.278748 14.326
3381 2 -0.0434702 -0.31871 17.9993
3382 2 1.88518 -0.348707 19.8979
3383 2 -0.0798807 1.41652 19.9363
3384 5 1.85194 1.44755 18.0192
3385 5 3.76928 -0.377938 18.0068
3387 2 3.81501 1.48693 19.8627
3433 2 -0.0763681 3.22961 18.1128
3434 5 1.87171 3.26642 19.9084
3437 2 3.80135 3.25171 18.0164
4057 5 -0.0768574 -0.382847 21.8118
4060 2 1.87195 1.45492 21.7233
4061 5 3.76129 -0.347351 21.7112
4109 2 -0.108598 3.33302 21.6624
4113 2 3.81531 3.2621 21.7065
4058 2 1.87758 -0.346708 23.6025
4059 5 -0.037068 1.55747 23.5667
4063 2 3.80118 1.46536 23.5052
4110 2 1.89211 3.31294 23.414
4733 2 -0.0689762 -0.29492 25.3765
4734 5 1.87425 -0.293763 27.133
4735 2 -0.054222 1.6214 27.0823
4736 2 1.88111 1.55182 25.3048
4737 2 3.8021 -0.317865 25.3043
4739 5 3.79977 1.5235 27.144
4785 2 -0.0457783 3.391 25.3178
4786 2 1.85618 3.35576 27.1562
4789 5 3.81265 3.30963 25.244
5409 5 -0.0935809 -0.238535 28.8997
5410 5 1.86779 -0.320263 30.689
5411 2 -0.0467821 1.59773 30.7579
5412 2 1.84132 1.61952 28.9408
5413 2 3.81088 -0.367193 28.9182
5415 5 3.78015 1.51754 30.7209
5461 2 -0.0552228 3.4003 28.9701
5462 2 1.85006 3.38347 30.7705
5465 2 3.79286 3.38017 28.9588
6085 5 -0.0334875 -0.335995 32.5567
6088 2 1.84877 1.51815 32.6074
6089 5 3.77813 -0.386201 32.5989
6137 5 -0.0110515 3.38952 32.6589
6141 5 3.72362 3.38139 32.5932
7437 2 -0.0138154 -0.543811 39.7145
7440 2 1.92626 1.4158 39.7685
7493 5 3.7571 3.28939 39.7757
7489 2 0.0361423 3.30944 39.7634
7441 5 3.76771 -0.437704 39.7941
6761 2 0.0167867 -0.437963 36.2711
6762 2 1.8815 -0.441975 37.9865
6763 2 0.0268725 1.4062 38.0816
6764 2 1.86508 1.44758 36.2602
6765 2 3.7629 -0.43848 36.2178
6767 2 3.75681 1.43021 37.9524
6813 5 -0.00709264 3.32858 36.2832
6814 2 1.90076 3.31775 38.0086
6817 2 3.72543 3.35248 36.2413
6091 5 3.72751 1.47437 34.4603
6087 2 0.0287418 1.48125 34.4625
6086 2 1.85351 -0.412198 34.4514
6138 2 1.87489 3.37325 34.466
7438 2 1.8992 -0.476812 41.57
7439 5 -0.0321609 1.3755 41.468
7443 2 3.7673 1.44236 41.5963
7490 2 1.90107 3.29059 41.5567
8113 5 -0.0285641 -0.436798 43.3935
8114 2 1.87017 -0.407408 45.2435
8115 5 -0.0614586 1.48203 45.1894
8116 2 1.90826 1.43314 43.3395
8117 5 3.76322 -0.416251 43.437
8119 2 3.79215 1.46749 45.2289
8165 5 -0.063256 3.28 43.2562
8166 5 1.89453 3.29913 45.1498
8169 2 3.75161 3.28459 43.3515
55 5 -0.0157053 5.23244 1.39099
56 5 1.89058 5.14393 -0.4708
59 5 3.81298 5.0707 1.40322
105 2 -0.0531128 6.95511 -0.572635
106 2 1.95386 6.9632 1.3858
107 2 -0.0396142 8.58582 1.32639
108 2 1.85302 8.66645 -0.484933
109 2 3.77254 6.98089 -0.440267
111 2 3.78871 8.71039 1.43624
732 5 1.93675 5.11064 3.27465
781 2 -4.93287e-04 6.97873 3.27934
784 5 1.94789 8.65456 3.28839
785 2 3.85337 6.88704 3.29521
833 5 -0.0852605 10.3208 3.24036
161 5 3.67393 10.5058 -0.425357
837 2 3.73606 10.4968 3.28377
158 2 1.82915 10.4406 1.40738
157 5 -0.0977718 10.421 -0.451918
731 5 0.00948256 5.12778 5.09081
735 2 3.83603 5.04621 5.12312
782 2 1.98431 6.8834 5.17071
783 2 0.0385334 8.62583 5.18128
787 2 3.79371 8.68944 5.13208
1407 5 0.0077643 5.08472 8.79845
1408 2 1.94315 5.05468 6.92449
1411 5 3.78785 5.02723 8.77016
1457 2 0.0250693 6.90291 6.9786
1458 2 1.93738 6.86528 8.80751
1459 5 -0.0420707 8.6199 8.86873
1460 2 1.94959 8.64267 6.97003
1461 2 3.81214 6.86724 6.94588
1463 2 3.77751 8.64845 8.8026
1509 2 -0.0216473 10.3809 6.95334
834 2 1.87863 10.4469 5.15147
1510 5 1.8729 10.4711 8.801
1513 2 3.71972 10.4849 6.94623
2083 2 -0.0102313 4.98998 12.5148
2185 2 -0.0605115 10.4873 10.6567
2087 2 3.77359 5.00597 12.443
2134 5 1.88614 6.8165 12.4843
2135 5 -0.0635914 8.67829 12.4662
2861 5 -0.079559 10.5019 14.349
2815 5 3.7191 8.68044 16.1558
2139 2 3.70806 8.68514 12.4857
2759 5 -0.0383812 4.99317 16.2446
2760 2 1.88335 4.99317 14.3459
2763 2 3.7538 5.05752 16.2193
2809 5 -0.0647323 6.82577 14.3705
2810 2 1.87577 6.81487 16.1797
2811 2 -0.0937291 8.66806 16.183
2812 2 1.85354 8.67157 14.3505
2813 2 3.71661 6.8029 14.3202
2186 2 1.85352 10.4923 12.4759
2133 2 -0.0499865 6.78508 10.6826
2865 2 3.64556 10.5505 14.3007
2084 2 1.92262 5.01453 10.6358
2136 2 1.90914 8.65383 10.652
2137 2 3.77102 6.84737 10.6392
2189 2 3.70831 10.4992 10.643
2862 2 1.80064 10.615 16.097
3435 2 -0.0972717 5.06316 19.8338
3436 2 1.88925 5.05626 18.0517
3439 2 3.79793 5.05187 19.8575
3485 2 -0.0479464 6.85723 18.0281
3486 2 1.86726 6.853 19.8452
3487 5 -0.125559 8.82462 19.809
3488 5 1.82152 8.69123 17.9942
3489 2 3.75359 6.83685 18.0514
3491 2 3.7361 8.74043 19.8021
4112 2 1.90002 5.10828 21.6605
4161 5 -0.0915153 6.92912 21.6567
4164 5 1.86627 8.88418 21.5706
4165 2 3.79335 6.91077 21.5943
3537 5 -0.113601 10.6259 17.8725
4111 2 -0.0653985 5.08244 23.4427
4115 2 3.8286 5.12948 23.4209
4162 5 1.9117 6.99195 23.4334
4163 5 -0.0889999 8.96495 23.4345
4167 5 3.75842 8.89001 23.4563
4787 5 -0.0581003 5.19879 27.1709
4788 5 1.88213 5.13442 25.2584
4791 5 3.80366 5.1615 27.1404
4837 5 -0.0585739 7.03828 25.2335
4838 5 1.89316 7.03985 27.1449
4839 5 -0.0981218 8.82892 27.1562
4840 2 1.87734 8.91799 25.2961
4841 2 3.80513 7.0065 25.2815
4843 2 3.72824 8.85915 27.121
4890 2 1.81275 10.6151 27.1841
5463 2 -0.0242685 5.18703 30.7804
5464 2 1.88464 5.17263 28.9918
5467 2 3.74231 5.19956 30.7468
5513 2 -0.051919 6.98407 29.0285
5514 2 1.85113 6.97587 30.7872
5515 2 -0.0472785 8.74623 30.8554
5516 2 1.83649 8.80265 29.0249
5517 2 3.75177 7.02518 28.9789
5519 2 3.6878 8.78407 30.7994
6140 2 1.85315 5.21148 32.6079
6189 2 -0.0465872 6.94233 32.6311
6192 2 1.82093 8.73979 32.608
6193 2 3.70501 6.96889 32.5839
5569 2 3.65028 10.5972 28.9921
5566 2 1.79404 10.5705 30.8242
6245 2 3.62799 10.5704 32.606
6241 2 -0.0464174 10.548 32.6221
5565 2 -0.0529144 10.5755 29.0567
6143 2 3.7123 5.19604 34.4321
6921 2 3.61769 10.5947 36.1817
7545 2 3.69066 6.99177 39.7997
6918 2 1.80838 10.593 38.0116
6815 2 0.0447667 5.21115 38.0594
6816 2 1.87155 5.20377 36.2345
6819 2 3.71859 5.19227 37.9949
6865 2 -0.032986 7.01017 36.2529
6866 2 1.84898 7.01239 38.0161
6867 2 -0.0462322 8.82564 38.0192
6868 2 1.82183 8.77488 36.2058
6869 2 3.70558 7.00011 36.2131
6871 2 3.6601 8.7983 38.0137
7492 2 1.89549 5.17304 39.7872
7541 2 -0.00494175 7.04878 39.8021
7544 2 1.83024 8.80403 39.8193
6917 2 -0.0545055 10.5588 36.2035
7593 2 -0.0518106 10.5872 39.827
6139 2 -0.0477264 5.20976 34.4769
6190 2 1.83468 6.97492 34.4236
6242 2 1.78391 10.5671 34.4005
6191 2 -0.0493002 8.75272 34.4083
6195 2 3.66505 8.77047 34.3908
7597 2 3.62155 10.6223 39.8368
7491 2 0.0351072 5.17056 41.4985
7495 2 3.72313 5.13689 41.5859
7542 2 1.8575 6.98151 41.5734
7543 2 -0.0489596 8.80148 41.6103
7547 2 3.6603 8.80727 41.6158
8167 2 -0.0420511 5.11625 45.1061
8168 2 1.87493 5.14403 43.3302
8171 2 3.76519 5.10341 45.2083
8217 2 -0.025713 6.93295 43.3105
8218 2 1.84801 6.93106 45.1325
8219 2 -0.0712875 8.70083 45.1039
8220 2 1.80856 8.75638 43.375
8221 2 3.68457 6.94654 43.3863
8223 2 3.67355 8.753 45.1676
8270 2 1.77406 10.5301 45.1886
8273 2 3.63618 10.5867 43.4237
7594 2 1.78251 10.606 41.6321
8269 2 -0.0834963 10.584 43.407
889 2 3.58014 14.0246 3.26778
885 2 -0.10139 13.9675 3.2592
159 2 -0.115104 12.1943 1.43401
160 2 1.75564 12.2648 -0.416441
836 2 1.78482 12.1807 3.27708
163 2 3.63388 12.2585 1.46765
209 2 -0.119889 13.9838 -0.373339
210 2 1.74444 13.9881 1.46944
211 2 -0.100295 15.8023 1.43213
212 2 1.7104 15.8172 -0.350588
213 2 3.56676 14.0279 -0.365513
215 2 3.51649 15.886 1.45538
888 2 1.73344 15.8548 3.23019
1564 2 1.67542 15.8411 6.88601
835 2 -0.078592 12.1433 5.09037
839 2 3.64914 12.2711 5.0888
886 2 1.72699 14.0119 5.05766
887 2 -0.107568 15.8308 5.07757
891 2 3.528 15.8556 5.04468
1567 2 3.53575 15.8297 8.71414
1565 2 3.56606 14.0778 6.88741
1511 2 -0.0769393 12.203 8.7718
1512 2 1.79763 12.2547 6.91438
1563 2 -0.108287 15.819 8.73761
1515 2 3.65347 12.3357 8.78912
1561 2 -0.110411 13.9678 6.88259
1562 2 1.72622 14.029 8.74233
2240 2 1.67141 15.8576 10.6222
2241 2 3.54814 14.1289 10.6171
2237 2 -0.0837144 14.0125 10.6082
2919 2 3.52742 15.9153 16.0717
2187 2 -0.0408904 12.2725 12.4481
2916 2 1.70596 15.8737 14.2157
2915 2 -0.125144 15.7847 16.0814
2191 2 3.59081 12.3337 12.4599
2914 1 1.74532 14.0953 16.0409
2238 1 1.74245 14.1116 12.4537
2239 1 -0.135163 15.8637 12.3939
2913 1 -0.0762376 14.0781 14.2062
2867 1 3.60537 12.4013 16.0437
2243 1 3.54975 15.937 12.4626
2917 1 3.5644 14.1436 14.2307
2864 1 1.77768 12.3771 14.2627
2863 1 -0.0856405 12.4304 16.078
2188 2 1.80154 12.294 10.6399
4268 1 1.65214 15.7043 21.6878
4265 3 -0.170425 13.938 21.6907
3539 2 -0.133355 12.4006 19.7517
3540 3 1.74022 12.4936 17.8941
4269 1 3.56982 14.0859 21.6325
3543 3 3.57265 12.4854 19.7677
3589 1 -0.14106 14.0933 17.9144
3590 1 1.70541 14.117 19.7907
3591 2 -0.22662 15.7123 19.8288
3592 3 1.72732 15.7509 17.9291
3593 3 3.57365 14.0952 17.8903
3595 3 3.54385 15.7705 19.7545
4216 1 1.75172 12.3822 21.6359
4213 3 -0.127343 10.7309 21.593
4217 3 3.66492 10.7717 21.6251
3538 2 1.79629 10.7028 19.7557
3541 5 3.65279 10.6695 17.9271
4943 3 -0.173272 15.6247 27.1589
4942 3 1.72203 14.009 27.1683
4215 3 -0.141001 12.2381 23.4996
4219 3 3.62492 12.4539 23.4865
4266 4 1.66328 14.0002 23.4936
4267 4 -0.190282 15.6761 23.4872
4271 3 3.54572 15.6544 23.5058
4947 3 3.55477 15.6958 27.1875
4945 3 3.56474 14.0433 25.3584
4891 4 -0.0799683 12.3041 27.1853
4892 4 1.75472 12.3225 25.3406
4944 4 1.65839 15.6801 25.3054
4895 4 3.6003 12.3826 27.1897
4941 4 -0.142864 13.9386 25.323
4214 4 1.84153 10.7125 23.4743
4893 4 3.66989 10.7177 25.3305
4889 3 -0.113768 10.6411 25.3483
6244 4 1.76763 12.3371 32.611
6297 4 3.57649 14.0504 32.5941
6296 4 1.74679 15.7114 32.6043
5567 4 -0.0721547 12.3304 30.8308
5568 4 1.76471 12.3385 29.0152
6293 4 -0.0884605 14.0185 32.6224
5571 4 3.58992 12.3338 30.8146
5617 4 -0.118604 13.9935 28.9963
5618 4 1.74912 14.0297 30.8133
5619 4 -0.158909 15.6654 30.7813
5620 1 1.73664 15.6896 28.9732
5621 4 3.5681 14.0341 29.0252
5623 4 3.5754 15.7792 30.8135
6969 4 -0.097597 14.0059 36.2118
6973 4 3.57064 14.0612 36.1803
6971 1 -0.154359 15.7108 38.0218
7596 1 1.76007 12.363 39.8343
6970 1 1.72188 14.0289 38.0188
6972 1 1.70256 15.7058 36.2218
6975 1 3.5666 15.6865 38.0147
7649 1 3.5713 14.0514 39.8421
7648 1 1.71442 15.6967 39.8536
6919 1 -0.0626755 12.299 38.0142
6920 4 1.76313 12.3448 36.1992
7645 4 -0.104555 14.0191 39.8273
6923 4 3.5707 12.3849 38.0054
6295 4 -0.145498 15.707 34.4476
6243 1 -0.0658915 12.3247 34.4092
6294 4 1.74717 14.035 34.4004
6247 4 3.58299 12.3527 34.3886
6299 4 3.57801 15.7551 34.3802
8324 4 1.72925 15.738 43.4712
8327 1 3.55642 15.808 45.3068
7595 1 -0.0716499 12.3628 41.6546
7599 1 3.5855 12.3728 41.6584
7646 1 1.75575 14.0421 41.6639
7647 1 -0.150489 15.6724 41.6447
7651 1 3.56871 15.7516 41.6525
8325 1 3.56495 14.0667 43.4842
8322 1 1.74606 14.0478 45.27
8271 1 -0.102015 12.3121 45.2202
8272 1 1.76514 12.3504 43.4594
8323 1 -0.124404 15.7535 45.2797
8275 1 3.58899 12.3271 45.2291
8321 1 -0.0989034 14.0327 43.4821
261 1 -0.146122 17.6674 -0.315812
262 1 1.72387 17.7228 1.39726
263 1 -0.126535 19.4917 1.36603
264 1 1.72448 19.5441 -0.342425
265 1 3.53665 17.706 -0.348268
267 1 3.52101 19.5179 1.43596
313 3 -0.153795 21.3281 -0.349831
314 1 1.69754 21.3182 1.43972
317 1 3.53404 21.3389 -0.340154
937 5 -0.149125 17.7124 3.20628
940 1 1.73897 19.5178 3.18858
941 1 3.52444 17.7542 3.202
989 2 -0.126328 21.2808 3.18886
993 1 3.54692 21.3087 3.16632
938 2 1.72783 17.6935 5.02115
939 2 -0.168198 19.5412 5.0235
943 3 3.53194 19.5697 4.98174
990 3 1.72856 21.3021 4.97788
1613 3 -0.153578 17.6752 6.84003
1614 2 1.59316 17.6841 8.73506
1615 3 -0.192762 19.5298 8.7578
1616 5 1.66568 19.5587 6.88252
1617 5 3.55511 17.7151 6.91598
1619 3 3.57933 19.543 8.72959
1665 3 -0.187182 21.3353 6.92281
1666 3 1.70525 21.2983 8.73494
1669 3 3.594 21.2914 6.88335
2341 5 -0.206619 21.3403 10.5717
2292 3 1.65371 19.5076 10.5333
2293 5 3.52937 17.7012 10.5228
2289 3 -0.157159 17.7083 10.6162
2345 5 3.58832 21.3001 10.5966
2968 3 1.69389 19.4618 14.376
3021 5 3.5428 21.3334 14.3427
2290 3 1.67272 17.6626 12.4246
2291 5 -0.191613 19.496 12.4378
3018 3 1.7013 21.2987 16.137
3017 5 -0.227891 21.3299 14.3626
2295 5 3.51549 19.4785 12.4587
2971 3 3.53003 19.3962 16.1431
2342 3 1.64627 21.35 12.4582
2969 1 3.52627 17.6742 14.2796
2965 5 -0.20681 17.6622 14.2928
2966 1 1.69759 17.6398 16.1111
2967 3 -0.255349 19.4506 16.115
3641 5 -0.209164 17.5289 17.9477
3642 3 1.67993 17.462 19.789
3643 5 -0.205108 19.4269 19.8483
3644 5 1.6795 19.449 17.9371
3645 3 3.49908 17.5659 17.9833
3647 5 3.51672 19.4621 19.8359
3693 5 -0.232907 21.3463 17.923
3694 3 1.69164 21.3459 19.829
3697 3 3.52216 21.3498 17.907
4317 5 -0.220372 17.5202 21.6637
4320 3 1.66226 19.431 21.6285
4321 5 3.51866 17.5016 21.6494
4369 5 -0.251931 21.3717 21.6411
4373 3 3.52144 21.3484 21.6236
4318 3 1.65552 17.5057 23.4918
4319 5 -0.253393 19.4187 23.474
4323 5 3.51387 19.4483 23.4475
4370 5 1.66244 21.3617 23.4967
4993 5 -0.237265 17.5203 25.3146
4994 5 1.6845 17.5349 27.1572
4995 3 -0.260301 19.4317 27.0851
4996 3 1.65384 19.3985 25.3331
4997 5 3.53696 17.5303 25.2915
4999 3 3.58353 19.4413 27.0882
5045 5 -0.289603 21.3314 25.3138
5046 5 1.6336 21.3333 27.0958
5049 5 3.59521 21.3382 25.3368
5669 5 -0.232502 17.5085 28.9754
5670 5 1.74433 17.5235 30.7882
5671 3 -0.240051 19.4456 30.7891
5672 5 1.69118 19.4531 28.9875
5673 3 3.57809 17.5727 28.9463
5675 3 3.59755 19.4042 30.7997
5721 5 -0.227614 21.3473 28.9818
5722 3 1.66569 21.3868 30.7807
5725 5 3.58944 21.3067 28.9651
6345 5 -0.217824 17.5265 32.5758
6348 5 1.71342 19.4676 32.5791
6349 3 3.60456 17.5789 32.6406
6397 5 -0.211123 21.3495 32.5976
6401 5 3.58502 21.3639 32.5778
7753 3 3.5848 21.3593 39.892
7701 5 3.61551 17.5327 39.8013
7749 5 -0.225903 21.3985 39.8974
7021 3 -0.208154 17.5193 36.2058
7022 5 1.64232 17.5265 38.0423
7023 3 -0.222591 19.4123 38.0435
7024 5 1.6925 19.4476 36.2435
7025 5 3.62423 17.5548 36.2572
7027 3 3.60074 19.5012 38.0837
7073 5 -0.238833 21.3852 36.2466
7074 5 1.71995 21.3699 38.0432
7077 3 3.61827 21.3024 36.2378
7697 2 -0.174403 17.5059 39.9212
7700 5 1.65389 19.4654 39.8746
6347 3 -0.217363 19.4022 34.4532
6398 5 1.69403 21.3917 34.4593
6346 5 1.70349 17.5403 34.4098
6351 3 3.60988 19.4513 34.4268
7698 2 1.70343 17.5144 41.6488
7699 3 -0.177213 19.4459 41.681
7703 5 3.62627 19.4833 41.6103
7750 3 1.69215 21.395 41.6336
8373 5 -0.187725 17.5662 43.4004
8374 5 1.69706 17.6424 45.3146
8375 5 -0.185414 19.5345 45.2824
8376 3 1.68998 19.497 43.3945
8377 5 3.59434 17.6229 43.4629
8379 3 3.53032 19.5068 45.2875
8425 5 -0.181839 21.3591 43.3741
8426 3 1.74923 21.3124 45.2846
8429 5 3.53556 21.3707 43.4305
315 3 -0.1773 23.1995 1.50058
316 5 1.70478 23.1695 -0.344988
319 3 3.60619 23.1276 1.50569
365 3 -0.176314 25.0998 -0.385791
366 5 1.6795 25.0673 1.4715
367 5 -0.190767 27.0588 1.49165
368 5 1.72701 27.0168 -0.357005
369 5 3.58556 25.1241 -0.393385
371 3 3.70891 27.0416 1.42862
992 3 1.71225 23.145 3.19086
1041 3 -0.152031 25.0452 3.25258
1044 5 1.78432 27.0539 3.25224
1045 5 3.6202 25.1078 3.24045
991 5 -0.136266 23.1664 4.99632
995 5 3.59255 23.1396 5.00004
1042 3 1.68662 25.0758 4.99716
1043 5 -0.148272 27.0047 5.01015
1047 3 3.66849 27.0134 5.06752
1667 5 -0.202976 23.2385 8.6844
1668 5 1.71241 23.1697 6.87514
1671 5 3.60569 23.2245 8.73651
1717 3 -0.12984 25.0916 6.87391
1718 3 1.71829 25.1038 8.74434
1719 5 -0.189427 26.9876 8.6837
1720 5 1.72429 27.0004 6.85507
1721 5 3.61036 25.1116 6.83502
1723 5 3.64078 26.9687 8.74861
2396 5 1.724 27.0003 10.5581
2393 5 -0.270946 25.12 10.5885
2397 3 3.64942 25.1072 10.5887
2344 5 1.68527 23.2367 10.5945
2343 3 -0.243414 23.1945 12.4474
2347 5 3.63584 23.2165 12.4155
3072 3 1.71277 27.0894 14.2255
2394 5 1.6952 25.1166 12.4515
2395 5 -0.229659 27.0383 12.4733
3075 5 3.59472 27.0156 16.1033
3073 5 3.62817 25.1015 14.3171
2399 5 3.63713 27.0191 12.4285
3019 3 -0.264302 23.2756 16.1707
3020 5 1.64898 23.197 14.3242
3023 3 3.58364 23.2196 16.1593
3069 5 -0.275417 25.1144 14.268
3070 5 1.64099 25.1479 16.1402
3071 5 -0.212079 27.0393 16.1
3695 3 -0.247303 23.2496 19.7575
3696 5 1.67243 23.1835 17.9523
3699 3 3.54188 23.14 19.7741
3745 3 -0.270297 25.1249 17.9821
3746 5 1.64011 25.1585 19.7499
3747 3 -0.238932 27.0291 19.7483
3748 3 1.61923 27.0308 18.0029
3749 5 3.60362 25.1439 17.9607
3751 3 3.606 27.0411 19.7765
4372 5 1.68368 23.2151 21.6063
4421 5 -0.281928 25.1302 21.6227
4424 5 1.68619 27.0757 21.6461
4425 5 3.5744 25.1388 21.6429
4371 3 -0.266165 23.2849 23.5242
4375 3 3.56825 23.1981 23.5076
4422 5 1.63048 25.0976 23.5107
4423 5 -0.247274 27.0805 23.5222
4427 3 3.60454 27.059 23.462
5047 3 -0.213891 23.2452 27.1199
5048 3 1.6008 23.2524 25.286
5051 5 3.58755 23.2301 27.1667
5097 3 -0.245328 25.106 25.3571
5098 5 1.66043 25.0971 27.1568
5099 3 -0.192586 26.9996 27.1376
5100 5 1.68313 27.0556 25.3458
5101 5 3.58095 25.1162 25.2714
5103 3 3.58184 26.9881 27.1648
5723 3 -0.164256 23.2272 30.7899
5724 3 1.63957 23.1996 28.9802
5727 5 3.57047 23.2562 30.7482
5773 5 -0.25498 25.1078 28.9414
5774 5 1.68456 25.1311 30.7423
5775 5 -0.183267 27.0666 30.7665
5776 3 1.70662 27.0457 28.8745
5777 3 3.578 25.1347 28.9131
5779 5 3.56521 27.0165 30.7612
6400 3 1.64143 23.2326 32.5838
6449 5 -0.21542 25.1462 32.6227
6452 3 1.6943 27.0573 32.6349
6453 5 3.60839 25.1498 32.6475
7805 3 3.57886 25.1977 39.9512
7752 5 1.70264 23.3149 39.857
7804 5 1.70242 27.032 39.8868
7801 5 -0.194707 25.1725 39.8032
7131 5 3.59591 27.0207 38.0379
7075 3 -0.20259 23.2801 38.0297
7076 3 1.65371 23.2861 36.28
7079 5 3.58651 23.2967 37.9839
7125 5 -0.20368 25.156 36.2705
7126 3 1.72096 25.1669 37.9865
7127 3 -0.138586 27.0679 38.0282
7128 3 1.70675 27.0305 36.2352
7129 3 3.56747 25.1895 36.2267
6399 3 -0.206937 23.2449 34.4463
6403 5 3.59837 23.2404 34.5034
6455 3 3.59554 27.0259 34.4956
6450 5 1.68029 25.1559 34.4424
6451 3 -0.17639 27.0697 34.4185
7751 3 -0.158107 23.3098 41.6836
7755 2 3.53869 23.2579 41.628
7802 1 1.65694 25.1441 41.6828
7803 3 -0.174827 27.0662 41.6804
7807 1 3.62656 27.0552 41.6275
8427 5 -0.141192 23.2517 45.2433
8428 3 1.68476 23.2781 43.4234
8431 3 3.49269 23.2253 45.2424
8477 3 -0.139195 25.1297 43.425
8478 3 1.70664 25.1047 45.2526
8479 5 -0.188673 27.0045 45.2848
8480 5 1.72417 27.0169 43.4566
8481 5 3.57417 25.1264 43.4297
8483 3 3.63188 27.0362 45.2655
417 3 -0.187222 28.9431 -0.335516
418 3 1.72412 28.945 1.39235
419 5 -0.140279 30.8001 1.45745
420 3 1.76969 30.8062 -0.306871
421 5 3.67554 28.8926 -0.333611
423 3 3.64985 30.7992 1.38831
469 5 -0.0903492 32.7089 -0.396709
470 3 1.77417 32.7009 1.42288
473 5 3.61703 32.7282 -0.322749
1093 3 -0.122534 28.9206 3.25181
1096 5 1.78318 30.8237 3.25049
1097 5 3.65166 28.9175 3.22905
1145 3 -0.0977398 32.7437 3.29302
1149 5 3.71144 32.6985 3.19198
1094 3 1.7509 28.9264 5.06277
1095 5 -0.153663 30.8083 5.05622
1099 3 3.6781 30.8852 5.07884
1146 3 1.80486 32.7187 5.06928
1769 3 -0.107572 28.9331 6.87141
1770 3 1.73285 28.9509 8.71464
1771 5 -0.158439 30.7962 8.69751
1772 5 1.8181 30.8012 6.8681
1773 5 3.63976 28.901 6.88374
1775 3 3.6404 30.8131 8.80474
1821 5 -0.159524 32.74 6.86346
1822 5 1.8216 32.6838 8.75431
1825 3 3.68641 32.6658 6.87115
2501 3 3.66398 32.673 10.5414
2445 5 -0.153452 28.9087 10.5607
2448 3 1.75595 30.7544 10.5477
2497 5 -0.177152 32.7129 10.5675
2449 5 3.61661 28.9291 10.5657
2446 3 1.70762 28.8981 12.4756
2447 5 -0.169283 30.7838 12.405
2451 5 3.64509 30.7804 12.3854
2498 5 1.80305 32.7042 12.3812
3121 3 -0.18225 28.8989 14.2337
3122 5 1.69927 28.8951 16.1016
3123 5 -0.20656 30.793 16.0902
3124 5 1.76981 30.792 14.2777
3125 3 3.60573 28.886 14.2209
3127 3 3.61722 30.7967 16.0856
3173 5 -0.186893 32.7152 14.2452
3174 3 1.75716 32.6548 16.1207
3177 3 3.65351 32.6776 14.3293
3797 3 -0.184637 28.9424 17.9782
3798 5 1.64685 28.913 19.7695
3799 3 -0.186305 30.7841 19.7693
3800 3 1.67763 30.7956 17.9082
3801 5 3.60235 28.9119 17.944
3803 5 3.6365 30.7948 19.8126
3849 5 -0.161943 32.7078 17.9313
3850 5 1.70493 32.6861 19.7548
3853 5 3.63776 32.6161 17.8763
4473 3 -0.216481 28.9326 21.6482
4476 5 1.69003 30.7914 21.6491
4477 3 3.60707 28.8237 21.6738
4525 5 -0.212782 32.7341 21.6591
4529 3 3.63941 32.7196 21.6442
4474 3 1.70144 28.9035 23.4606
4475 5 -0.219877 30.7874 23.5036
4479 5 3.56647 30.8139 23.4738
4526 3 1.72859 32.7084 23.4744
5149 5 -0.23524 28.9726 25.421
5150 3 1.69348 28.9028 27.1722
5151 3 -0.195015 30.8886 27.1919
5152 5 1.69161 30.8421 25.3786
5153 5 3.6045 28.855 25.3331
5155 5 3.60172 30.8505 27.183
5201 5 -0.200656 32.7315 25.3552
5202 3 1.73212 32.73 27.2314
5205 3 3.55961 32.7069 25.3253
5825 5 -0.17053 28.9519 28.8856
5826 3 1.69068 28.9236 30.7703
5827 5 -0.161709 30.823 30.7757
5828 3 1.68812 30.8276 28.8902
5829 5 3.5735 28.8885 28.9211
5831 5 3.57171 30.8027 30.7147
5877 5 -0.195882 32.7453 28.9747
5878 2 1.74807 32.721 30.7154
5881 3 3.56409 32.7414 28.9816
6501 5 -0.205504 28.9335 32.6155
6504 3 1.75249 30.8364 32.5797
6505 5 3.59822 28.9028 32.5825
6553 5 -0.187652 32.8156 32.536
6557 5 3.61851 32.7573 32.5806
7177 5 -0.166638 28.9766 36.2165
7178 5 1.75088 28.9791 38.023
7179 3 -0.126498 30.8862 38.0182
7180 3 1.8279 30.8783 36.2417
7181 3 3.60212 28.9514 36.2101
7183 3 3.61518 30.8786 38.0143
7229 5 -0.157607 32.7873 36.2135
7230 5 1.7679 32.7622 38.0268
7233 3 3.62881 32.7701 36.1924
7853 3 -0.158786 28.9219 39.8063
7856 5 1.76006 30.8752 39.8408
7857 3 3.63653 28.9398 39.9077
7905 3 -0.157942 32.8273 39.842
7909 3 3.67663 32.8157 39.8468
6502 5 1.75909 28.941 34.4368
6507 3 3.57805 30.8553 34.4398
6503 5 -0.194877 30.8844 34.4001
6554 5 1.76421 32.7601 34.4101
7854 5 1.71209 28.9629 41.7154
7855 5 -0.185694 30.8743 41.6896
7859 5 3.65153 30.8579 41.7798
7906 5 1.76562 32.7928 41.6933
8529 3 -0.221557 28.9618 43.4853
8530 5 1.73481 28.9535 45.2737
8531 5 -0.168627 30.7821 45.3067
8532 3 1.73844 30.8794 43.5099
8533 3 3.6416 28.8848 43.4831
8535 5 3.62976 30.8399 45.2301
8581 5 -0.17166 32.764 43.5524
8582 3 1.78351 32.7085 45.3044
8585 3 3.63586 32.773 43.5657
1200 3 1.87792 38.368 3.15803
472 1 1.80443 34.6632 -0.348494
475 3 3.63153 34.6775 1.39017
521 1 0.0351119 36.5329 -0.330807
522 1 1.85825 36.5364 1.40737
523 3 0.00869364 38.3337 1.41338
524 1 1.87942 38.3734 -0.318491
525 3 3.63651 36.5461 -0.307805
527 1 3.66869 38.3865 1.46446
471 5 -0.0868977 34.5759 1.41514
1201 3 3.67202 36.5136 3.15065
1197 5 -0.0714168 36.5171 3.23634
1148 5 1.81901 34.5892 3.22448
577 1 3.67683 40.2094 -0.330672
574 1 1.93978 40.2137 1.46406
1253 1 3.73124 40.2132 3.24644
573 5 0.0320735 40.2405 -0.302356
1249 5 -0.00823688 40.2195 3.17758
1827 3 3.70444 34.5874 8.69653
1147 3 -0.0996033 34.5472 4.99659
1151 5 3.74328 34.6045 5.09404
1198 5 1.85104 36.5233 5.08365
1199 5 -0.0847366 38.4149 5.0621
1203 5 3.72647 38.3564 5.03249
1250 3 1.89908 40.1877 5.00587
1823 3 -0.167676 34.6275 8.73745
1824 5 1.79952 34.5712 6.90164
2549 3 -0.120375 36.4368 10.5256
1873 5 -0.134685 36.4733 6.87407
1874 5 1.81291 36.5205 8.71247
1875 5 -0.119085 38.3589 8.74738
1876 3 1.87228 38.4437 6.87524
1877 3 3.7377 36.4984 6.95909
1879 5 3.73034 38.4259 8.76001
2500 5 1.78481 34.6088 10.5549
2552 3 1.76073 38.377 10.5966
2553 5 3.73494 36.4871 10.597
1926 5 1.79831 40.2289 8.79689
1929 3 3.76408 40.2245 6.81522
2601 3 -0.146977 40.2817 10.5459
1925 5 -0.126011 40.2769 6.87926
2605 3 3.74126 40.259 10.6259
3179 5 3.64044 34.5761 16.1255
3176 5 1.75766 34.57 14.2576
2503 3 3.68762 34.5483 12.4201
3231 5 3.67838 38.3739 16.0896
2499 3 -0.1534 34.6334 12.4085
3175 5 -0.137597 34.6208 16.1366
3225 3 -0.121099 36.4644 14.2715
3229 5 3.69295 36.4856 14.2468
2550 5 1.73284 36.4883 12.4189
2551 5 -0.122969 38.3682 12.4416
3228 3 1.7521 38.3536 14.3052
3227 5 -0.162228 38.3312 16.0821
2555 5 3.72748 38.3938 12.4342
3226 3 1.72803 36.4868 16.0904
3278 5 1.776 40.2676 16.0766
2602 5 1.80175 40.2143 12.431
3277 3 -0.159647 40.2542 14.3024
3855 5 3.63582 34.5565 19.7281
4580 3 1.72508 38.3488 21.6166
3852 3 1.72491 34.6679 17.9247
4581 5 3.5973 36.4676 21.6299
3901 3 -0.112719 36.4395 17.9681
3902 3 1.73502 36.4246 19.7165
3903 5 -0.141974 38.3787 19.7709
3904 5 1.74374 38.342 17.9295
3905 3 3.63203 36.4473 17.8708
3907 5 3.62961 38.3511 19.7147
4577 5 -0.12489 36.4704 21.6199
3851 3 -0.140877 34.6407 19.6999
4528 5 1.69744 34.5693 21.6436
4629 3 -0.105899 40.1107 21.6362
4633 5 3.63123 40.2316 21.63
3954 3 1.7595 40.2221 19.7894
3953 3 -0.153186 40.2499 17.9596
5207 5 3.60061 34.5939 27.2259
5259 3 3.63477 38.3269 27.1072
5257 3 3.62525 36.4572 25.3067
4578 3 1.66612 36.4816 23.5059
4579 3 -0.0862864 38.3538 23.4321
4583 5 3.59553 38.3142 23.5119
4527 3 -0.176386 34.5835 23.5264
5203 5 -0.17705 34.6752 27.2143
5204 5 1.7201 34.5881 25.3025
4531 5 3.63691 34.5673 23.4853
5253 3 -0.142319 36.4559 25.2802
5254 5 1.74165 36.5073 27.2304
5255 3 -0.153138 38.2658 27.2105
5256 5 1.69647 38.346 25.3403
5305 3 -0.152699 40.1315 25.4208
5309 3 3.67462 40.1969 25.3761
5306 3 1.78779 40.1363 27.1746
4630 3 1.7288 40.132 23.4654
5879 3 -0.209459 34.6837 30.7176
5880 3 1.71804 34.5959 29.0342
5883 3 3.64455 34.641 30.631
5929 3 -0.182567 36.5515 29.0536
5930 5 1.78107 36.5369 30.7273
5931 3 -0.127743 38.3209 30.8076
5932 3 1.80107 38.3705 28.9778
5933 3 3.67834 36.5722 28.9632
5935 3 3.68482 38.3788 30.818
5981 5 -0.079789 40.1056 28.9672
5985 5 3.68343 40.1566 28.9214
6607 5 -0.118235 38.399 34.2648
6556 5 1.7712 34.6512 32.5157
6605 3 -0.191356 36.4975 32.4761
6608 3 1.80038 38.4334 32.4692
6609 3 3.68161 36.5187 32.5462
6657 1 -0.0448288 40.1883 32.4099
6606 5 1.778 36.5569 34.3188
6555 3 -0.18237 34.7644 34.3129
5982 1 1.83157 40.1815 30.7347
6658 1 1.8338 40.2285 34.2231
6661 1 3.70652 40.2099 32.477
6611 5 3.71352 38.4132 34.3138
7337 1 3.78086 40.2441 36.1534
8013 1 3.78842 40.2088 39.9002
7961 5 3.7193 36.6089 39.8691
7960 5 1.80328 38.532 39.851
7957 3 -0.0918742 36.5722 39.8309
7908 5 1.72513 34.7045 39.8307
7231 3 -0.135105 34.7434 38.0635
7232 5 1.7227 34.7485 36.2031
7235 5 3.69189 34.7354 37.9978
7281 3 -0.160278 36.573 36.1781
7282 3 1.70278 36.6043 37.9945
7283 5 -0.133611 38.5436 38.0122
7284 5 1.77728 38.521 36.1786
7285 3 3.71752 36.5834 36.2097
7287 5 3.72697 38.4492 37.984
6559 3 3.69693 34.7241 34.4791
7911 5 3.70908 34.6917 41.7271
8587 5 3.66395 34.6942 45.3191
8584 5 1.71893 34.683 43.5777
7958 5 1.74274 36.57 41.7186
7959 5 -0.0931279 38.5038 41.7032
7963 3 3.70507 38.468 41.73
8637 3 3.68151 36.6211 43.5232
8583 3 -0.0769853 34.6623 45.4431
7907 3 -0.168627 34.6666 41.637
8639 1 3.6606 38.3752 45.3736
8633 3 -0.105997 36.5057 43.6207
8634 3 1.80286 36.5582 45.3993
8635 3 -0.0219856 38.3489 45.4009
8636 5 1.81205 38.4329 43.5949
8010 3 1.88544 40.2911 41.7756
8689 1 3.71868 40.2327 43.5575
8686 4 1.89796 40.2689 45.3814
575 3 0.0326448 42.0943 1.47773
576 1 1.9232 42.0261 -0.300219
579 1 3.73726 41.9716 1.47605
625 1 0.0664614 43.7555 -0.285326
626 1 1.92826 43.7315 1.49821
627 1 0.0375464 45.4469 1.49694
628 1 1.90055 45.4048 -0.309445
629 1 3.76883 43.7056 -0.310236
631 1 3.78413 45.4157 1.49337
1252 1 1.9221 41.9868 3.25267
1301 1 0.0315272 43.7405 3.23226
1304 1 1.9436 45.4768 3.22667
1305 1 3.78408 43.7049 3.26439
1251 3 -0.00404031 42.0314 4.99625
1255 1 3.79256 41.9663 5.03038
1302 1 1.92379 43.7415 4.9747
1303 5 0.00590922 45.5565 5.02174
1307 1 3.82589 45.4544 5.0019
1927 3 -0.163566 42.0247 8.79288
1928 5 1.87419 42.0164 6.81593
1931 5 3.81932 41.9853 8.73082
1977 3 -0.0830295 43.6994 6.9267
1978 5 1.85793 43.791 8.76582
1979 3 -0.0491848 45.604 8.64163
1980 5 1.92772 45.5104 6.8433
1981 3 3.86317 43.7531 6.81409
1983 1 3.84463 45.4582 8.72805
2653 5 -0.102912 43.892 10.5477
2657 1 3.782 43.762 10.5889
2656 1 1.94275 45.5537 10.5896
2604 1 1.84145 42.0212 10.6197
3330 3 1.77376 43.7999 16.1807
2603 5 -0.143262 42.0926 12.4269
3335 1 3.76033 45.3289 16.1303
2607 3 3.73311 42.079 12.3766
3333 1 3.8049 43.7465 14.2325
2654 1 1.87536 43.8224 12.307
2655 3 -0.114919 45.5009 12.4953
3331 1 -0.0851812 45.5028 16.1493
3332 5 1.82496 45.4098 14.2607
2659 4 3.81438 45.4181 12.3934
3279 3 -0.152587 42.0718 16.0971
3280 5 1.80058 42.1561 14.2591
3283 3 3.73619 42.1293 16.1179
3329 4 -0.217026 43.8438 14.2992
3281 3 3.70836 40.3281 14.2603
3955 5 -0.182824 42.065 19.8815
3956 5 1.78103 42.0683 18.0011
3959 3 3.71991 42.0949 19.8135
4005 3 -0.145956 43.8043 17.9214
4006 1 1.87228 43.7979 19.8645
4007 5 -0.0851042 45.3971 19.8524
4008 3 1.83218 45.3901 17.9902
4009 1 3.75008 43.7661 17.9894
4011 1 3.76969 45.3328 19.8774
4632 5 1.7758 42.0496 21.6888
4681 3 -0.161442 43.8317 21.8032