# LAMMPS data file written by mdapy.

4 atoms
1.0 atom types

0.0 4.05 xlo xhi
0.0 4.05 ylo yhi
0.0 4.05 zlo zhi

Atoms # atomic

1 1 0 0 0
2 1 2.025 2.025 0
3 1 2.025 0 2.025
4 1 0 2.025 2.025
