ITEM: TIMESTEP
0
ITEM: NUMBER OF ATOMS
8192
ITEM: BOX BOUNDS pp pp pp
-3.9698540977530428e-01 5.1622087409774288e+01
-3.9698540977530428e-01 5.1622087409774288e+01
-3.9698540977530428e-01 5.1622087409774288e+01
ITEM: ATOMS id type mass x y z vx vy vz ql6 solidliquid 
7913 1 95.94 2.64108 3.2152 1.74197 2.90096 1.72875 -1.77975 0.3387033128699938 0
4098 1 95.94 -0.09185739999999999 0.4658 0.936675 -0.166803 0.9598030000000001 3.7031199999999997 0.5034728240090715 0
4414 1 95.94 51.3076 2.93742 2.1248400000000003 4.50605 -1.06924 -1.41931 0.41161408044277836 0
4 1 95.94 3.5777300000000003 -0.0244078 2.31072 -6.04709 5.23451 9.18538 0.30436638457279847 0
37 1 95.94 45.218999999999994 19.5654 -0.24138600000000002 -5.20306 3.79694 -2.1524900000000002 0.5675068151740034 0
228 1 95.94 4.95567 4.48301 1.14044 -4.2574 -2.85905 -4.2772 0.42163624775687447 0
23 1 95.94 9.8784 1.8856700000000002 1.46436 -1.32761 -1.9199099999999998 -21.4103 0.47780877807052025 0
4089 1 95.94 7.463239999999999 1.36801 2.59246 -5.89347 -2.12163 -1.25406 0.407447622318638 0
326 1 95.94 11.9156 2.3489400000000002 3.06846 5.85452 11.5604 0.38850999999999997 0.3912854898347794 0
3547 1 95.94 15.0457 1.2888 0.697129 -4.52665 -8.91601 -5.84799 0.33633556225151184 0
1938 1 95.94 17.942 1.2072200000000002 1.03606 8.36551 6.8258 4.47089 0.4050973339564615 0
570 1 95.94 17.0028 -0.228512 2.66138 -5.27209 6.16179 4.43984 0.4172977791193204 0
4252 1 95.94 19.547 2.79924 3.16217 2.1465 2.41172 -0.0821391 0.49333994408189846 0
4124 1 95.94 20.7304 2.4151599999999998 0.694891 4.77215 1.86497 1.76406 0.43904472661150384 0
217 1 95.94 21.4947 0.261228 2.4847 7.3159600000000005 -0.608987 -3.27935 0.42347970294769277 0
7919 1 95.94 25.7584 0.31259000000000003 0.9178860000000001 5.70478 2.43978 2.9309 0.4481330376511633 0
4107 1 95.94 24.2915 2.14147 3.0007200000000003 1.8649799999999999 1.9527299999999999 1.5033100000000001 0.37941085365568533 0
3842 1 95.94 22.9998 1.1881700000000002 0.5611550000000001 -4.22939 -8.57691 8.01857 0.38341383418047587 0
4386 1 95.94 27.3365 2.15997 2.30182 -4.52646 -0.097788 -5.70936 0.47000261272505056 0
5896 1 95.94 28.405 -0.336002 1.2914 0.9167360000000001 -4.77067 4.2466800000000005 0.3824850062971117 0
3828 1 95.94 29.7251 2.23411 1.34836 -1.3182 -6.190840000000001 3.16875 0.5328693440809441 0
7628 1 95.94 32.1221 2.31565 0.7697189999999999 3.3951800000000003 -0.6247 0.0204861 0.41369057898312345 0
4168 1 95.94 33.7135 0.7695420000000001 3.25032 -3.66865 1.7068599999999998 -0.63466 0.4409922518361065 0
3852 1 95.94 36.1535 1.4462899999999999 2.22008 -3.5357 -8.51442 0.808513 0.4903573204009665 0
3788 1 95.94 34.9749 50.9403 2.09578 -0.951702 -2.25173 7.89855 0.5550085212024533 0
4025 1 95.94 38.2538 1.28503 3.8584400000000003 1.43707 1.88888 6.061730000000001 0.3070374070500716 0
7926 1 95.94 39.749 2.0964 1.67241 -4.01216 -2.04976 7.4988 0.30586809816679467 0
3993 1 95.94 39.8061 -0.346879 1.64822 -4.2383 -3.13905 -0.997445 0.4760555944941141 0
5586 1 95.94 0.497644 0.8343940000000001 24.9581 2.33575 -1.90667 4.6867 0.5316721120285962 0
3833 1 95.94 42.4218 1.47644 1.7042599999999999 1.3247200000000001 1.32839 4.76284 0.3954476195419956 0
3997 1 95.94 44.4506 1.7555 2.93222 -3.5036400000000003 -3.8012599999999996 5.66058 0.4106674899503194 0
2071 1 95.94 43.8302 -0.211606 4.0554 0.26748 -0.5050640000000001 -5.99602 0.3460151627684536 0
3835 1 95.94 46.6754 2.1463200000000002 1.56036 -0.718168 1.09606 -0.635027 0.40508653537611966 0
1490 1 95.94 49.2375 7.204680000000001 24.5089 6.37571 -3.4191199999999995 -7.25281 0.32136061262979937 0
4116 1 95.94 49.1176 0.684189 1.27861 4.34387 -0.541094 -2.51145 0.40453056682928035 0
21 1 95.94 48.3126 2.8104 3.25204 4.92097 6.84972 6.890969999999999 0.43974659212003614 0
8088 1 95.94 29.9601 29.1719 -0.0360966 6.0283 -4.16219 -6.90828 0.4159490435107678 0
1 1 95.94 0.9054139999999999 5.41242 0.848482 -5.27813 -0.105197 2.73924 0.45459588799797196 0
5918 1 95.94 0.9393950000000001 4.596430000000001 3.6162699999999997 -1.68534 -5.32221 4.13514 0.4175469140641498 0
8065 1 95.94 28.052 27.3089 -0.404357 -8.97407 3.24286 -6.41087 0.4099121300362469 0
4106 1 95.94 5.53362 6.30348 2.82139 -11.7678 10.4115 1.0086899999999999 0.4802216135078709 0
3858 1 95.94 8.15588 4.38178 1.32261 6.42471 0.764281 1.5508899999999999 0.3823327491926638 0
7955 1 95.94 10.0932 6.71333 1.2619200000000002 4.09846 -2.54177 -3.08185 0.5002983434860098 0
6084 1 95.94 11.2538 4.3553 0.8065640000000001 -1.84686 4.70544 6.86124 0.40207808648094273 0
6385 1 95.94 14.2105 3.72284 1.4574799999999999 -3.4809900000000003 2.84337 -1.30443 0.4072853761284198 0
3841 1 95.94 13.4203 6.43971 1.4696 -0.0436198 -14.1148 -3.09279 0.4282885811935129 0
8162 1 95.94 11.5706 5.351319999999999 3.78104 -1.55226 1.8648900000000002 -4.58202 0.364164104739947 0
2314 1 95.94 15.8834 5.18201 2.91162 5.043740000000001 -2.6887 -7.590839999999999 0.41870747651024476 0
46 1 95.94 18.2844 4.27557 1.1842700000000002 0.86321 -1.49999 -0.735021 0.43138593469061254 0
7960 1 95.94 18.391 6.78673 1.7971400000000002 2.26267 3.39307 -0.98239 0.4272971703208266 0
7948 1 95.94 42.0594 6.45032 1.38689 1.5467 -2.17082 5.86482 0.32191496924921226 0
29 1 95.94 20.6621 5.15509 2.199 2.80725 7.0373600000000005 -7.583289999999999 0.3890485709302363 0
3974 1 95.94 42.7297 24.1662 1.60663 -0.147249 7.38789 -1.65403 0.3754871735362414 0
3846 1 95.94 25.7456 2.61584 0.06386309999999999 5.02461 3.4347199999999996 10.3101 0.4280680340163084 0
3865 1 95.94 23.0322 3.75768 1.13763 -3.7623 -1.07095 1.2135200000000002 0.47292062742504565 0
8018 1 95.94 7.16512 17.6228 0.43568500000000004 4.413930000000001 1.9734099999999999 4.00488 0.41635237686253 0
3848 1 95.94 28.5547 4.30499 0.904943 -8.813260000000001 -4.3436699999999995 -7.15326 0.47640150919431085 0
4128 1 95.94 26.3945 4.7581 2.3529 10.6086 5.00437 4.92058 0.42242204518498744 0
7942 1 95.94 28.7879 6.40428 2.96163 -0.104651 0.581216 -6.35423 0.47087967003664866 0
7976 1 95.94 4.42009 9.90428 -0.20805 6.14025 -7.22295 2.83839 0.47280101936928554 0
3847 1 95.94 30.1114 6.67028 0.6892729999999999 3.1880900000000003 1.13344 -3.8099199999999995 0.48890158101721404 0
13 1 95.94 31.0861 4.36113 2.4232400000000003 -8.609160000000001 10.1714 -3.19253 0.4456933554122856 0
7946 1 95.94 33.1684 6.47524 1.1423 -8.92887 -1.61537 -1.91714 0.4535063299994175 0
3554 1 95.94 34.3956 3.46435 2.03937 4.3595 2.2608200000000003 2.26641 0.3757156896513887 0
7947 1 95.94 37.8928 6.80057 3.35088 -4.40216 3.99064 -5.012169999999999 0.3879504055678645 0
4132 1 95.94 37.3564 3.73573 2.44485 5.72835 -7.85853 0.503596 0.4469537636549922 0
3851 1 95.94 35.9253 5.45397 0.49028900000000003 -3.58814 -6.31646 -5.1819 0.4539280307411426 0
3872 1 95.94 39.5599 8.13713 0.492649 1.6592200000000001 -3.87075 -7.6048 0.3599605448356874 0
7927 1 95.94 40.1288 5.1077900000000005 2.9700599999999997 0.909639 3.53621 0.9315690000000001 0.4054970680365684 0
2054 1 95.94 47.0648 5.0319 2.55975 -2.7705 8.02816 8.00367 0.3733533036691311 0
4136 1 95.94 44.0307 4.106730000000001 1.44583 -0.9584860000000001 -3.50046 0.9079959999999999 0.42039970659086917 0
7950 1 95.94 45.1218 6.838480000000001 1.19058 -3.16052 -5.3125 -13.9586 0.42277599142263755 0
7921 1 95.94 31.8996 4.67319 -0.32044 0.47049300000000005 7.74225 0.946033 0.40979490762259796 0
4138 1 95.94 48.0072 6.85417 0.784003 5.52233 1.6908900000000002 -8.00023 0.41484902041509675 0
1931 1 95.94 49.6152 5.0254 2.94598 -1.51051 -1.9967400000000002 5.01817 0.47625886190054206 0
7933 1 95.94 1.9496900000000001 8.16475 0.529148 0.853849 -1.65474 5.6986099999999995 0.3943541805391098 0
141 1 95.94 50.9075 37.2116 25.4256 7.2318 1.5319200000000002 10.169 0.5718125843899713 0
7954 1 95.94 4.89703 7.50913 0.557787 2.50745 -3.9251400000000003 -1.64755 0.515280749421807 0
44 1 95.94 4.0736 9.11657 2.6036900000000003 2.1692099999999996 -1.78968 -1.02511 0.4560846713803675 0
1950 1 95.94 2.58449 6.2098 2.6217 -5.89272 -2.20988 -6.40203 0.3808574970682016 0
4161 1 95.94 6.9939100000000005 8.694510000000001 2.11763 -2.3452599999999997 6.58887 -0.376589 0.42022166675733785 0
3860 1 95.94 9.55485 9.1126 1.19797 3.6943099999999998 11.6196 1.47624 0.34931336045341693 0
8039 1 95.94 14.7809 26.840999999999998 1.3292 1.99088 5.019340000000001 0.725626 0.33943340544856415 0
2229 1 95.94 12.9369 9.10511 0.9187709999999999 0.292219 -0.338464 -2.0916200000000003 0.4092965629187925 0
4142 1 95.94 11.5398 7.7568600000000005 3.22434 0.632321 -10.2356 5.98701 0.49337682066663924 0
2077 1 95.94 30.8398 33.3867 1.08568 -7.17806 7.050619999999999 -3.7314800000000004 0.43837368212973965 0
4144 1 95.94 15.9986 8.28378 1.7259799999999998 -2.0353 -1.40283 -0.267426 0.39527183083004513 0
28 1 95.94 15.3627 10.224 0.483575 -2.24574 -8.18043 -4.8187 0.4408852584577157 0
7980 1 95.94 18.1713 9.51211 3.11945 0.957764 -1.0352 -4.96255 0.39946677542655346 0
7983 1 95.94 20.6771 8.53984 2.45486 1.69605 1.49609 -1.98793 0.41411122846294424 0
4049 1 95.94 12.6377 40.4998 -0.30507 6.8048399999999996 -2.65306 0.0636318 0.45149064014990525 0
5923 1 95.94 16.8327 11.2926 25.2931 7.26434 2.92499 3.92458 0.4026538293336692 0
4425 1 95.94 22.7363 7.04483 3.93016 -1.24384 6.9698899999999995 -3.27662 0.43036946609737514 0
4147 1 95.94 22.5966 6.78372 1.06457 2.60359 6.3387400000000005 -1.71871 0.4544802434772816 0
4150 1 95.94 25.1139 7.23681 2.1242900000000002 0.9870959999999999 -2.9615 1.5658299999999998 0.5331734325281616 0
4146 1 95.94 23.323 9.3681 2.0636099999999997 -8.33151 0.894843 4.29453 0.43450544598275737 0
4169 1 95.94 24.5994 10.9419 0.43887299999999996 0.521197 13.9074 2.33005 0.40156717692836574 0
31 1 95.94 27.3327 6.725280000000001 0.598079 0.7725770000000001 -2.42156 2.3835 0.2945609822753696 0
7963 1 95.94 26.4389 9.47575 1.6732799999999999 -1.31243 -0.719111 3.9851199999999998 0.3627616414705016 0
3834 1 95.94 47.1852 51.1004 -0.143611 6.96318 2.77917 -2.58953 0.43979519664503774 0
1832 1 95.94 29.1093 10.4043 25.1581 -2.48618 2.54847 -7.61442 0.4621614603379199 1
3825 1 95.94 31.6875 9.23526 1.14189 2.58033 -9.43586 6.47233 0.3879818763212938 0
3849 1 95.94 29.0002 9.17633 2.20567 -5.06803 2.6107400000000003 6.28911 0.37270587331623267 0
56 1 95.94 34.3451 9.04785 2.6042400000000003 -0.638813 8.5756 -10.6313 0.5060627930976741 0
1843 1 95.94 2.04223 17.8684 25.0001 -5.13099 -3.1446 7.591130000000001 0.4279093103465152 0
8147 1 95.94 37.0217 8.18088 1.15565 6.00661 -1.58254 2.81008 0.4363258220920334 0
4196 1 95.94 38.8881 9.86148 2.73315 4.0681199999999995 -5.09972 -2.4906200000000003 0.47407766753576513 0
3830 1 95.94 41.6775 9.871080000000001 1.6137 -3.4828300000000003 3.38867 -3.9070099999999996 0.3794496384780997 0
81 1 95.94 42.5491 10.9785 3.64302 -0.838462 0.563094 -10.3222 0.4423113146250169 0
4329 1 95.94 44.3081 9.18569 1.74393 2.11912 1.9251599999999998 2.41529 0.4090689948822079 0
3853 1 95.94 40.9693 8.27708 3.78424 7.842969999999999 -3.02977 -5.2849 0.36367592592364045 0
62 1 95.94 46.7969 8.73672 2.45878 4.4698199999999995 2.06292 -2.8731 0.4264877521763269 0
4382 1 95.94 45.8106 10.8519 0.625675 6.38935 -3.7405699999999995 -3.46558 0.4526398488840863 0
4156 1 95.94 45.78 10.5568 3.82991 -4.65878 9.315669999999999 -3.19066 0.4067410391431881 0
7615 1 95.94 -0.242296 6.725219999999999 3.0888299999999997 -1.96144 -1.25302 -3.33057 0.4062679523406565 0
3581 1 95.94 50.7096 6.67488 0.614991 1.06647 7.18652 -4.77171 0.4347014635536363 0
3561 1 95.94 49.8871 9.0245 2.13977 -3.4113800000000003 4.00964 3.00137 0.45239023899046893 0
4438 1 95.94 0.22930799999999998 9.85645 2.1130299999999997 4.19307 4.90453 6.4986 0.4872823223921916 0
3583 1 95.94 2.86096 11.6481 1.5869799999999998 -1.7749700000000002 4.06768 -3.08208 0.30265457888258407 0
65 1 95.94 0.521912 13.0651 1.73535 7.15992 4.847980000000001 0.11093299999999999 0.3573540287773018 0
7974 1 95.94 0.6808609999999999 11.7047 -0.290213 4.79981 11.1553 -9.7228 0.43854013980534157 0
7973 1 95.94 5.62595 11.5658 1.62184 -7.647419999999999 5.80325 -3.1076599999999996 0.36006552086050747 0
7995 1 95.94 4.95336 13.210999999999999 3.14132 -1.0365 -0.591241 -2.0678900000000002 0.4525097589324177 0
344 1 95.94 7.566089999999999 13.0664 4.5519300000000005 -3.60961 -0.0565398 0.160181 0.41635062721740607 0
3586 1 95.94 8.64419 11.3179 2.6479 -2.5204 -0.5537449999999999 0.08952360000000001 0.4604657100660482 0
3903 1 95.94 10.6121 13.4032 2.58695 0.9080729999999999 4.62499 -6.53228 0.33828265037332667 0
7957 1 95.94 11.4819 10.4334 3.09787 -4.20104 0.382678 2.50035 0.5757592374269286 0
68 1 95.94 13.6232 12.1034 1.81037 2.11415 0.458891 -0.9214110000000001 0.3509916154686554 0
7978 1 95.94 12.6709 13.692 -0.317594 1.20155 -5.24254 1.4836200000000002 0.5047506018877576 0
3589 1 95.94 17.781 11.672 1.1654799999999998 1.84527 -2.21673 2.2050099999999997 0.4602188210690141 0
3882 1 95.94 16.3413 13.6723 1.72793 -9.774339999999999 -5.2295 2.0222599999999997 0.42970766720728415 0
224 1 95.94 17.7655 40.4718 -0.373714 -0.44254899999999997 3.8745199999999995 -2.2537700000000003 0.41140460275909096 0
8143 1 95.94 32.4956 50.5696 0.770004 11.0041 -1.43747 8.35223 0.48078468807584596 0
4310 1 95.94 20.2191 11.4293 2.63361 3.2964599999999997 -5.23252 2.52663 0.3552613279016201 0
3885 1 95.94 21.4499 13.8168 2.4927799999999998 0.5796479999999999 9.59217 13.1087 0.3974775141276866 0
73 1 95.94 24.1134 13.7328 1.5714700000000001 -2.50632 -1.49946 -5.06463 0.48306225279148224 0
7982 1 95.94 22.3138 11.9749 0.823002 -3.3359699999999997 10.3675 -2.54135 0.4694600456326778 0
375 1 95.94 26.5728 12.7969 0.553901 -8.13985 6.27757 5.97929 0.32046962897209946 0
4170 1 95.94 28.9443 13.9336 1.97235 -7.40552 7.3033399999999995 -2.72453 0.38451690385792964 0
75 1 95.94 28.8102 11.4269 0.591859 -0.144846 -4.70279 9.39155 0.43857920636089354 0
377 1 95.94 30.4854 11.3459 2.6850099999999997 9.00225 -3.2904699999999996 4.18547 0.40199037465752585 0
76 1 95.94 31.1142 14.0182 1.17454 1.49355 1.15604 -10.927 0.46803497260154886 0
4194 1 95.94 31.3393 13.5755 4.36201 3.04028 -0.155102 5.74291 0.31252604860047395 0
4451 1 95.94 36.1287 10.7138 1.7857599999999998 -3.87411 -7.597189999999999 11.3007 0.4367956847910655 0
7930 1 95.94 45.8995 48.2881 0.312963 -5.35136 6.5846100000000005 0.306031 0.3253735894478248 0
4473 1 95.94 33.1426 11.9469 2.56802 -4.0186 -4.70553 2.46128 0.3781692245491126 0
78 1 95.94 35.9125 13.2306 2.76831 -7.00465 1.6586400000000001 -2.0661400000000003 0.3470662909038369 0
6071 1 95.94 19.4874 43.3378 25.5521 -1.9938 -1.83122 -3.58353 0.30474519139814304 0
4175 1 95.94 38.369 12.6987 1.8331 2.94583 -0.9152819999999999 -2.23935 0.42844294830903706 0
3893 1 95.94 40.0914 14.6142 1.34722 -1.92452 -2.30082 -5.47383 0.5029328943372017 0
3981 1 95.94 3.84964 30.2078 0.00142166 4.96746 0.9281709999999999 -9.66658 0.36993110354418524 0
7991 1 95.94 44.2602 12.8935 2.36464 -0.24731399999999998 -0.9561569999999999 -5.882219999999999 0.33023380726189294 0
6125 1 95.94 46.9822 48.4353 24.1947 -0.276302 -1.75793 -4.48445 0.4111036592116493 0
7967 1 95.94 40.9764 12.304 1.41465 -0.563991 1.33061 -1.0836700000000001 0.3806880929570257 0
8008 1 95.94 42.1267 13.9199 3.7933 -3.85722 11.6345 5.70199 0.372770641872105 0
3999 1 95.94 50.7964 31.9874 0.09732669999999999 -4.45098 4.96076 -3.8592199999999997 0.3573236475444449 0
7970 1 95.94 46.5628 13.1172 2.04933 -4.86567 10.4003 13.6933 0.38551975685660883 0
4178 1 95.94 48.2332 11.2458 2.11804 8.84501 2.98583 -8.9991 0.5895599552345446 0
4200 1 95.94 50.9236 11.6618 3.6468300000000005 6.810039999999999 -1.2290299999999998 4.34476 0.32215138431365664 0
3896 1 95.94 49.2772 13.6383 1.55424 -4.53214 1.33998 2.22497 0.3869216730655941 0
84 1 95.94 2.51205 14.9139 2.12416 -3.4979400000000003 -1.7777900000000002 -2.7077299999999997 0.4774667282810629 0
3602 1 95.94 51.3345 14.7706 0.15711 0.754181 0.960198 4.29944 0.3306467022472159 0
125 1 95.94 -0.305528 17.5928 2.3462400000000003 -4.29536 5.37906 -3.33236 0.442076291990402 0
4162 1 95.94 4.6884 13.6391 0.563611 1.2005299999999999 2.83933 3.32039 0.5012498788458221 0
4180 1 95.94 5.38066 16.5492 1.83477 -6.6433100000000005 -1.21795 -7.474080000000001 0.3477374663386478 0
3822 1 95.94 24.9773 5.50379 -0.324385 6.68748 0.424547 -0.448074 0.40487438085328153 0
3880 1 95.94 7.55858 13.4272 2.03983 -5.65688 -4.6620099999999995 -8.16695 0.3493406502280739 0
3607 1 95.94 8.81758 15.6882 2.0213099999999997 -5.263809999999999 2.5968400000000003 7.89266 0.4069082793403547 0
4323 1 95.94 13.7542 14.7282 2.26052 0.0905387 0.191437 -4.37288 0.3878714555535804 0
2087 1 95.94 14.5599 17.2339 3.41163 -1.8721400000000001 6.24092 -1.95111 0.49717696599796124 0
7706 1 95.94 11.4734 15.6609 0.642942 -4.26938 1.2022700000000002 1.32653 0.40588700072802264 0
7414 1 95.94 18.1349 17.246 2.33802 -4.82304 0.713717 -0.614104 0.43559088172498045 0
91 1 95.94 15.887 15.9378 1.30023 -2.17275 1.5461200000000002 4.45939 0.44296185109599456 0
8000 1 95.94 20.3339 16.3708 2.4268 4.02228 4.0728800000000005 6.966880000000001 0.3379440979264358 0
4207 1 95.94 18.3744 29.6405 0.0485241 3.1876599999999997 -0.9996860000000001 -2.93336 0.4132130792850007 0
4027 1 95.94 14.3696 36.534 -0.053941300000000005 1.9158400000000002 -4.04229 -5.39764 0.43605494677381307 0
6146 1 95.94 23.5358 16.0946 2.4125799999999997 -5.7565 1.8865599999999998 -3.26729 0.41276893058295033 0
8002 1 95.94 22.8619 18.667 1.6901700000000002 4.40984 1.99273 -3.1082 0.38666787803348696 0
96 1 95.94 25.4154 18.0231 3.468 -1.06629 3.66381 -4.334309999999999 0.36264184570088626 0
4171 1 95.94 27.7664 15.3479 -0.15567999999999999 0.175003 -1.3108899999999999 -1.9213799999999999 0.5220916726371891 0
4191 1 95.94 26.0031 15.3261 3.0679 -4.202459999999999 -2.48657 -0.553718 0.32828693671167725 0
8025 1 95.94 25.9676 17.2388 0.928636 -6.09943 -2.28284 3.77925 0.4550323601073819 0
2038 1 95.94 28.1145 16.7918 2.15194 8.48484 -0.6654180000000001 3.9895099999999997 0.5104785134579259 0
4092 1 95.94 30.1747 16.3484 0.492097 5.267580000000001 -5.14953 4.92546 0.4157507634498999 0
3943 1 95.94 31.0216 16.2236 3.14977 4.95941 0.0460249 1.86234 0.3898348631146032 0
7986 1 95.94 32.8343 16.2179 0.642883 -0.869868 6.07108 3.3940699999999997 0.4366452664765451 0
99 1 95.94 35.7451 18.4548 2.3374900000000003 -5.73154 7.16798 -3.1455900000000003 0.4514293466664786 0
8047 1 95.94 35.2393 15.9543 1.67077 5.89266 3.3997599999999997 4.14311 0.45588233776118614 0
4173 1 95.94 33.1704 14.8338 2.79956 2.3946400000000003 -3.3334099999999998 4.8998099999999996 0.5667818418945879 0
3913 1 95.94 37.8521 15.7916 2.60034 -4.90118 -3.2013599999999998 5.79085 0.43763157997185614 0
8007 1 95.94 37.4801 17.3976 0.582549 6.0799 0.272834 -7.86048 0.4385659717446269 0
103 1 95.94 48.2862 50.7272 23.4684 4.97967 -5.38935 2.0274799999999997 0.3519756658806524 0
3912 1 95.94 42.3966 16.1552 1.37606 6.06463 -9.98188 -6.6519 0.43707709273988465 0
4215 1 95.94 40.4617 16.6325 3.25212 -2.96112 -4.09244 -2.41079 0.5706776096087606 0
8012 1 95.94 44.9125 15.3143 3.46845 -11.0378 1.08701 -2.31213 0.40750777694232265 0
7989 1 95.94 44.9494 17.5664 1.6313799999999998 -1.6545599999999998 -7.48642 5.1263 0.5695719707006941 0
3894 1 95.94 45.0331 15.1575 0.263923 -3.03008 6.650469999999999 -1.3884 0.44309810654564247 0
5880 1 95.94 14.8139 5.23955 24.3553 -0.769021 -5.97234 2.98487 0.3534133271237778 0
3623 1 95.94 47.3439 16.0469 1.83405 9.699 -2.78041 -0.865142 0.47455523203041583 0
219 1 95.94 9.327960000000001 36.1732 0.498675 -4.45226 3.035 6.24529 0.4135132553193764 0
8034 1 95.94 1.23869 19.7962 1.4823600000000001 0.8980379999999999 1.01375 4.0011 0.5204050975265948 0
3921 1 95.94 3.57695 20.1875 2.61108 3.3794199999999996 -2.84258 2.03959 0.4386225626575505 0
4154 1 95.94 1.53683 21.6264 3.4218300000000004 11.1745 6.1305 4.731669999999999 0.46390107657083596 0
6486 1 95.94 1.62957 10.1665 25.4979 1.74678 5.17457 -0.9490209999999999 0.34690384366109545 0
1731 1 95.94 22.7842 0.797509 24.682 -0.886315 5.31977 -4.85112 0.42026629941013405 0
4204 1 95.94 5.43195 19.1849 0.8952209999999999 2.65655 1.05944 0.336868 0.3509873041998799 0
6414 1 95.94 7.94183 18.2274 2.8334900000000003 -0.11143900000000001 -3.55585 -3.16145 0.316152874873023 0
2055 1 95.94 10.0887 20.4191 2.65179 -6.0801099999999995 4.8859 1.9089099999999999 0.3626704479863439 0
4312 1 95.94 46.1245 4.67143 -0.340145 8.58232 1.33457 2.62608 0.44923648994521626 0
3902 1 95.94 9.94807 18.2984 0.980691 4.13399 -1.60319 -1.54587 0.4502048390492634 0
8020 1 95.94 13.449000000000002 17.691 0.75942 7.7126 1.93147 3.6671099999999996 0.3431279625285608 0
113 1 95.94 12.3898 19.2036 2.73044 -1.90658 -4.16574 3.5443800000000003 0.4303841281248518 0
3630 1 95.94 13.9222 20.3562 0.616506 -2.3085299999999997 0.009894400000000001 -0.624067 0.36328071855785304 0
6155 1 95.94 15.0281 20.3522 3.10953 -1.34449 5.42526 -0.49526000000000003 0.36006529002517934 0
3926 1 95.94 17.6698 20.3773 2.2473099999999997 -4.06607 -8.09229 2.8479400000000004 0.39906793134257496 0
3935 1 95.94 16.881 18.2839 4.46033 -0.0961742 -0.48503500000000005 -0.6067100000000001 0.3329217427834081 0
8023 1 95.94 15.7713 18.7659 1.21259 0.6823899999999999 3.4028199999999997 7.82372 0.401214731409167 0
3947 1 95.94 20.5076 21.0595 0.640288 3.95836 -0.561103 -2.52747 0.4102333559151556 0
3929 1 95.94 20.1461 19.4721 3.25802 2.38647 9.6063 1.63601 0.458220744392237 0
4337 1 95.94 14.3466 44.8999 -0.139977 -5.23906 -12.5874 -8.23448 0.3729310076647494 0
2053 1 95.94 23.2516 21.5781 1.2272299999999998 4.89895 -1.34412 -5.34721 0.5414074242760046 0
392 1 95.94 25.5399 19.9325 1.2348 -7.048889999999999 4.32899 -6.17494 0.43349345069010475 0
7524 1 95.94 25.3896 33.9756 0.730337 -2.2989599999999997 0.212608 -1.06245 0.4732430176360975 0
3908 1 95.94 27.5415 21.2087 0.21282600000000002 3.59576 -1.29504 -1.0414299999999999 0.3466813409620269 0
77 1 95.94 33.5661 13.4582 -0.14677300000000001 -5.0309 3.7299800000000003 0.12523900000000002 0.40664329483326445 0
117 1 95.94 30.3155 18.8094 2.02085 -8.71643 -4.56564 6.31997 0.38668311826134555 0
3951 1 95.94 31.9787 20.6939 2.58012 -5.47032 2.07895 8.11101 0.3196206334473337 0
3718 1 95.94 22.7118 33.830999999999996 -0.054340099999999995 -1.9438400000000002 5.1552 -6.810960000000001 0.2598919451335561 0
4065 1 95.94 8.01639 49.113 0.060687599999999994 0.5058159999999999 -3.9691300000000003 -8.82221 0.32923139143889646 0
4172 1 95.94 31.8686 18.5862 0.192995 -0.693869 8.18742 4.42847 0.38188377912709665 0
4217 1 95.94 36.7674 20.944000000000003 3.2227099999999997 0.5363479999999999 -1.04692 -0.9119459999999999 0.4495715243010478 0
3638 1 95.94 34.758 20.5802 1.2843200000000001 1.32321 1.7858599999999998 -2.46938 0.4100625576796205 0
3934 1 95.94 38.2481 18.4766 2.77578 -5.14358 3.09491 8.5748 0.3897563933188115 0
122 1 95.94 39.2502 21.3739 3.46748 2.0748 -0.951758 -6.699339999999999 0.4411933418497022 0
4095 1 95.94 39.8778 17.0694 0.261071 -3.5847599999999997 3.80115 -6.1651 0.3176697086615627 0
1824 1 95.94 42.6366 19.2136 0.470315 -2.34207 1.50475 -1.46317 0.4147808269684874 0
8052 1 95.94 42.1699 21.5306 1.8994799999999998 -0.63941 5.98225 -2.50231 0.4411748111376621 0
7631 1 95.94 37.5863 2.52628 -0.133089 0.351009 -6.69429 -0.161707 0.3645882858787468 0
4218 1 95.94 45.0446 20.3043 2.6208099999999996 0.862783 -0.288553 0.494593 0.33288007555158805 0
282 1 95.94 5.4434 50.7497 0.148169 -0.349072 -0.640886 -10.2921 0.48335444938917926 0
3957 1 95.94 47.6777 19.0881 1.43156 -2.76273 0.505441 9.32668 0.36048776862432086 0
7994 1 95.94 50.9455 20.2964 3.47747 2.73157 -2.6322400000000004 3.68393 0.39210155229428967 0
8054 1 95.94 47.0134 21.891 0.609563 5.387980000000001 -10.6531 -3.25957 0.33580209842695236 0
8055 1 95.94 51.4762 21.4527 1.05725 3.18214 -6.36121 -12.4812 0.3764050500847007 0
1968 1 95.94 1.49871 42.5929 24.6624 2.52855 -0.08407619999999999 -2.6212 0.4938531727109135 0
8053 1 95.94 49.4194 21.5995 2.15315 0.242802 -5.27275 5.33966 0.3704809859355729 0
8036 1 95.94 0.13366 26.0408 4.26144 5.91086 7.78032 -5.3844199999999995 0.4262938916044294 0
8017 1 95.94 2.2382299999999997 22.7038 0.9946450000000001 -1.88231 -2.69854 -0.948068 0.3336285767819289 0
4222 1 95.94 1.88599 24.5121 2.85852 0.16841 1.21359 2.3262400000000003 0.46174699930677865 0
128 1 95.94 4.47155 23.1703 2.2109 0.86971 2.25223 3.9775099999999997 0.322686163763616 0
1851 1 95.94 19.1799 18.3676 25.3678 0.388529 -3.21905 0.157532 0.3834025778853565 0
5584 1 95.94 51.2979 50.9008 23.4539 -0.570602 6.835839999999999 6.140630000000001 0.4475117439855753 0
3942 1 95.94 7.6651 20.5584 1.7418900000000002 0.35654600000000003 -3.22915 1.52488 0.321264479718002 0
4362 1 95.94 9.788039999999999 22.7844 3.2589599999999996 -2.62774 -9.18785 -2.6122 0.44131184573683313 0
131 1 95.94 7.214689999999999 24.7808 1.7871700000000001 4.65611 2.04367 9.3452 0.3702940016897787 0
7591 1 95.94 41.7553 46.2914 -0.0744707 -4.0524 10.075 -0.621534 0.5148138842691938 0
7999 1 95.94 11.9216 22.6724 1.02531 6.80647 -3.3904900000000002 3.0314 0.43017555805834434 0
1760 1 95.94 49.9421 48.9548 24.3615 -1.88315 5.697369999999999 -4.16605 0.41821629060962906 0
111 1 95.94 10.2959 24.8659 1.8045200000000001 2.52441 -8.11984 -8.62279 0.39556478835126085 0
263 1 95.94 13.1162 24.7551 2.87621 -3.2904199999999997 6.33871 6.57092 0.3353999632815464 0
8041 1 95.94 14.849 22.5229 4.33395 6.2171 -1.15647 1.11205 0.4070328378668076 0
8022 1 95.94 15.4064 22.4479 1.2315200000000002 0.671171 8.6207 2.11205 0.2751330732557153 0
8043 1 95.94 15.7878 24.7663 2.4616 1.45076 6.99625 -7.6246 0.36403188849240786 0
8026 1 95.94 20.01 22.1432 3.63385 4.06637 -4.05247 -4.44496 0.3944845604024654 0
8042 1 95.94 18.3915 22.9396 1.14426 2.62741 -1.46874 -12.5908 0.4514521089622073 0
2319 1 95.94 24.3267 23.9076 0.6602210000000001 -3.0603599999999997 -1.37172 -6.985860000000001 0.4958075283837016 0
4274 1 95.94 36.0819 32.8115 0.00590012 4.77853 -2.1533700000000002 1.98217 0.4058345624934073 0
8044 1 95.94 21.3308 23.5969 1.60229 -0.20113399999999998 -3.74765 3.98748 0.4389151910661083 0
3930 1 95.94 25.8262 22.3453 2.60321 -0.511099 -1.40947 0.975785 0.42056228042208527 0
8046 1 95.94 28.256 24.8896 2.02998 1.18703 -2.09802 0.770274 0.35840485841197167 0
3949 1 95.94 28.7023 21.9276 2.43086 -2.03508 0.108548 -5.23919 0.40088537908805827 0
1947 1 95.94 49.1789 31.9973 23.914 -3.20702 -0.888558 -2.37989 0.35487283812551207 0
3950 1 95.94 29.7326 25.0559 4.2129 1.9620900000000001 -0.40001 -6.64612 0.41334445331897585 0
3658 1 95.94 31.4713 25.9265 1.66635 -7.20173 -7.905819999999999 -4.0151900000000005 0.2673674450100834 0
3933 1 95.94 30.7909 22.8775 1.46049 6.2096599999999995 9.39365 -3.69791 0.3500742695666528 0
1875 1 95.94 35.3479 23.2439 3.43119 2.98179 0.0634332 -3.94915 0.3846939986622825 0
3972 1 95.94 33.605 23.1856 1.66325 2.0912900000000003 0.552262 -8.662939999999999 0.2704931389785713 0
4257 1 95.94 36.0437 25.4807 1.8898400000000002 5.649369999999999 1.83215 6.23983 0.37531756242936914 0
6198 1 95.94 36.6772 22.5358 1.04106 -6.3085 0.423308 6.68135 0.48114428273650184 0
4241 1 95.94 38.0298 23.7293 2.9486 4.79102 -7.690589999999999 7.6238600000000005 0.4123851489055292 0
4261 1 95.94 39.0988 26.0333 2.4402 3.09933 -4.42201 -4.81476 0.3786377065242236 0
8049 1 95.94 39.8084 22.6869 1.17363 -0.0665143 -4.146319999999999 2.16843 0.3654326878751932 0
4264 1 95.94 40.5769 23.954 4.01685 4.82744 -8.03229 9.70796 0.47383133171133307 0
124 1 95.94 44.4259 21.9366 0.204175 3.29734 2.20082 1.79867 0.4572243621474034 0
3996 1 95.94 44.1583 25.9459 2.7377700000000003 5.767119999999999 0.30283499999999997 -7.66975 0.5205822613220449 0
8032 1 95.94 36.9912 19.7475 0.5853010000000001 6.67488 7.006189999999999 0.0803638 0.4740478198512915 0
74 1 95.94 22.2169 14.6311 0.23500500000000002 -4.33552 9.81418 0.613147 0.4435276583895225 0
3978 1 95.94 44.5946 22.7571 2.79007 2.36301 2.44968 -2.18656 0.38579307164849497 0
4265 1 95.94 49.2633 24.3089 1.49702 -0.229773 1.1956 12.7173 0.37000152847544204 0
129 1 95.94 1.65765 27.4421 2.65674 1.10102 6.06998 1.2322799999999998 0.35029545214581903 0
4271 1 95.94 2.70348 30.249000000000002 2.18623 1.40155 4.91527 3.2715400000000003 0.30240378905906024 0
8060 1 95.94 6.71409 27.4106 3.41543 -1.8053700000000001 -3.12261 0.014322999999999999 0.503972594522908 0
4270 1 95.94 5.13503 29.5306 1.82125 1.1518 4.811640000000001 -0.106583 0.3731486549759292 0
4226 1 95.94 4.37151 26.1565 2.2025200000000003 -4.67209 4.18506 -0.550172 0.43979979648609585 0
7769 1 95.94 6.697089999999999 27.19 0.46984799999999993 -8.8059 -3.13481 -7.845269999999999 0.47870330545093787 0
178 1 95.94 9.08962 27.0017 1.32726 0.36540500000000004 -6.43577 10.7421 0.5033795536344854 0
1488 1 95.94 45.3439 51.3477 23.448 -15.4668 1.02221 2.41655 0.30893615955803744 0
5907 1 95.94 22.0484 9.99504 25.0631 10.5412 -2.77793 0.0972471 0.45957342498151266 1
7745 1 95.94 11.7601 26.8456 2.43721 7.94422 4.00389 -6.177219999999999 0.4019669573962507 0
8062 1 95.94 13.4122 29.0614 1.12924 0.8260280000000001 2.9387 1.8195299999999999 0.3638088320004591 0
6126 1 95.94 30.7575 -0.07147250000000001 25.5935 -0.502699 3.27241 4.23897 0.35837630417688604 0
158 1 95.94 18.7509 24.6931 2.98867 -1.7730299999999999 -2.01094 -0.30945500000000004 0.3966361636877989 0
448 1 95.94 17.2985 27.5621 1.66205 7.10417 -1.0172 -6.92277 0.3534015925922864 0
3946 1 95.94 13.9316 27.4323 3.667 -9.30017 -6.64801 -4.09201 0.3834614759278182 0
6006 1 95.94 13.3457 31.4337 24.9083 1.19776 -2.5847900000000004 -0.036606 0.44900275753329993 0
4233 1 95.94 20.1332 26.4238 1.41699 3.9920400000000003 -1.16959 0.05667180000000001 0.3139800488484604 0
8045 1 95.94 22.8664 25.7496 2.5190599999999996 3.94104 1.76215 5.90377 0.42783403173531404 0
3969 1 95.94 25.5127 29.1306 0.405548 -2.56684 -0.12857000000000002 -0.730363 0.4220670254051181 0
8064 1 95.94 22.5798 27.932 0.584905 -3.65426 -2.87868 -8.87509 0.41100288623122144 0
159 1 95.94 26.6258 27.4026 2.30227 9.23457 -1.42739 0.42582200000000003 0.416849731055693 0