ITEM: TIMESTEP
100000
ITEM: NUMBER OF ATOMS
8788
ITEM: BOX BOUNDS pp pp pp
-1.3709569000315263e+00 4.6370956900029782e+01
-1.3731076187153839e+00 4.6373107618714783e+01
-1.3664745802213076e+00 4.6366474580222111e+01
ITEM: ATOMS id type x y z vx vy vz temp entropy temp entropy
1 2 -0.448434 -0.412529 -0.394795 0.754386 1.21172 0.0787555 283.5527 -6.52663
2 4 1.34518 -0.690968 1.38744 0.0142546 -2.79475 -1.16575 296.7607 -4.9962344
3 3 -0.31078 1.50208 1.44511 -2.50522 -0.874844 1.39575 311.46518 -6.61155
4 5 1.30526 1.26999 -0.590132 0.639606 0.43566 0.366845 328.56427 -6.3185983
5 5 3.25142 -0.474666 -0.478422 0.333561 0.0461567 0.292965 285.23145 -6.859601
7 2 3.15873 1.36916 1.29667 0.194191 2.59505 -0.896801 271.78278 -5.925831
53 1 -0.407199 3.19964 -0.437705 -1.76886 3.92488 0.0905076 276.17328 -6.944666
54 4 1.44167 3.30892 1.26985 0.420019 0.950919 -0.0982365 291.71497 -6.6859035
57 4 3.12499 3.13653 -0.552316 1.46517 -0.870871 -2.37744 337.86185 -5.967284
677 3 -0.230838 -0.314946 3.32397 -3.49854 1.24658 0.362451 244.90918 -6.054273
680 2 1.48247 1.38586 3.1005 -0.421832 -1.47112 -2.63184 281.95996 -6.674965
681 3 3.24836 -0.549614 3.0744 1.16669 -1.32503 4.46621 261.97263 -6.812562
729 1 -0.193237 3.37204 3.11088 -0.420583 0.0540756 5.77799 247.56575 -5.8085747
733 3 3.34985 3.36368 3.16864 -1.29028 3.79164 -7.26743 276.46326 -6.258258
6 1 5.05243 -0.424401 1.39132 -0.634218 -4.10562 -2.34307 273.29697 -6.6347013
8 1 5.12009 1.33066 -0.526914 3.88657 1.93229 2.15062 271.94598 -5.710436
9 2 6.91445 -0.497009 -0.543292 -0.0497838 0.90219 -1.4314 289.5014 -6.335729
10 4 8.7127 -0.572581 1.40986 3.33747 1.78091 -3.06355 298.10284 -6.9115305
11 2 6.88409 1.18904 1.37128 0.0447832 2.7761 2.45112 288.754 -4.960104
12 2 8.5955 1.30387 -0.583048 3.30751 1.35486 -0.926892 288.79895 -5.5395656
58 5 5.068 3.25042 1.2639 -0.298644 1.07482 0.561515 313.43805 -6.3969297
61 1 6.98818 3.27722 -0.51799 1.00579 0.783271 3.00263 280.7874 -6.0304275
62 4 8.69573 3.19734 1.17397 1.44829 0.581013 -2.40664 288.55023 -5.9984617
684 4 4.98225 1.39631 3.05374 1.78301 -1.68277 2.98617 272.7552 -6.6495767
685 3 6.95415 -0.49729 3.40215 4.42039 2.46756 -3.02308 268.1059 -4.9077663
688 4 8.66268 1.40393 3.12163 -1.3587 -3.76665 0.496114 323.07452 -7.7791557
737 5 6.99957 3.30351 3.01601 -0.325905 -0.181799 0.0926724 331.0349 -5.9021587
13 2 10.4485 -0.713983 -0.405219 1.20599 -2.02827 0.330256 282.48038 -5.1490607
15 4 10.3569 1.2754 1.2215 1.10865 0.979473 -1.35785 307.54797 -5.3908277
65 3 10.4697 3.13449 -0.534813 1.5106 -1.40737 -3.86016 266.1522 -5.9050417
689 3 10.5048 -0.30973 3.22101 1.23312 2.17114 3.48775 318.77008 -5.826303
745 5 14.1191 3.23909 3.12836 -0.949696 1.36056 -0.66699 268.80414 -6.4188647
14 5 12.2633 -0.649009 1.36637 1.93931 2.69153 -1.51951 335.96454 -5.9580708
741 4 10.5526 3.07245 3.15734 -1.26205 3.76314 -2.52193 317.42807 -5.6545987
16 4 12.3191 1.24027 -0.522126 0.203374 -0.544162 -4.24371 293.15195 -6.632658
17 3 14.2135 -0.65967 -0.555016 -0.429271 -2.07745 -1.10701 287.35574 -5.875957
19 5 14.1531 1.16923 1.41341 1.55062 1.41359 -2.15236 309.2536 -5.770393
66 2 12.2017 3.11385 1.23848 0.577053 3.93054 2.24955 269.64377 -5.725223
69 2 14.1302 3.0246 -0.476688 -1.68827 -2.03273 -1.56768 271.26013 -5.539165
693 3 14.2061 -0.586508 3.16615 0.475892 0.55774 -2.9124 305.3849 -6.085655
692 4 12.3874 1.32419 3.25843 -3.564 -2.69431 0.91379 309.48776 -5.7429614
55 5 -0.299407 5.13421 1.28662 -0.906947 0.51504 1.70143 293.22098 -6.837601
56 1 1.35827 5.11553 -0.539998 2.65261 -1.26506 -1.58116 327.32486 -7.0676627
59 3 3.20705 5.07957 1.16549 1.52546 -2.52589 -0.740437 286.58197 -5.8486757
105 4 -0.330533 7.04538 -0.379175 1.73733 0.79208 1.33476 311.6293 -6.1578727
106 1 1.4699 7.0039 1.3605 0.823581 1.21188 -1.62717 307.90695 -7.438312
109 4 3.24502 6.99294 -0.343188 4.95261 -0.183028 3.58977 263.69336 -6.1341476
732 4 1.5485 5.13345 3.18068 -2.7448 -1.25385 0.681966 294.85574 -7.1701317
781 1 -0.234367 6.94544 3.27174 0.185881 -0.795703 -0.827867 269.52768 -6.764789
785 1 3.22086 7.00508 3.09578 -1.63826 -1.25263 0.72369 316.97864 -6.098404
60 1 5.03401 5.13817 -0.573622 -2.89207 -1.7943 -0.649628 294.2431 -6.3475633
63 3 6.93206 5.19867 1.27964 2.44401 2.81717 1.23132 339.37082 -6.805084
64 5 8.81934 5.18973 -0.540232 -1.00273 0.930442 -2.26306 255.31035 -6.354073
110 5 5.07662 7.0161 1.29991 -0.236345 -2.62031 3.49144 309.71463 -7.059049
113 4 6.99795 7.16771 -0.456842 -2.16417 1.6019 -0.627594 284.60004 -5.4519963
114 2 8.68222 7.17907 1.31762 0.0572787 0.186759 1.71257 272.32254 -5.454259
736 2 4.99964 5.27716 3.21246 0.613216 0.967724 -0.620921 297.21872 -4.9358325
740 5 8.80068 5.28986 3.17952 -0.0406035 2.64263 -0.146701 305.0445 -5.09033
789 1 6.93526 6.98908 3.1199 0.152139 -2.46202 0.568328 323.5653 -6.916075
117 3 10.5054 6.91518 -0.476324 -1.39487 1.45759 -0.309662 251.35043 -6.67025
67 5 10.523 5.09254 1.4072 -0.703285 1.51701 -2.08104 276.25854 -6.29785
68 5 12.4211 5.1485 -0.534174 -1.17456 0.394854 -3.63611 216.22495 -6.1327643
71 3 14.1089 5.22879 1.39284 1.69979 2.78337 -3.27712 274.85486 -5.4226856
118 2 12.4632 6.98053 1.46267 0.811598 -1.20807 -2.55921 269.06683 -6.199546
797 1 14.2901 6.94536 3.14586 -0.600462 -2.04431 3.62775 314.36475 -6.4663634
121 1 14.1302 6.95654 -0.433268 1.51087 3.88892 2.08761 253.75053 -7.059743
744 2 12.3544 4.98725 3.1417 -2.41837 0.374949 1.7394 295.0181 -6.403159
793 2 10.5667 7.16164 3.17693 2.89437 -1.01268 -1.55689 321.45193 -5.1218033
678 4 1.59306 -0.377915 4.9552 -1.226 1.55258 1.19505 291.71924 -6.0093226
679 5 -0.265592 1.54078 5.04135 0.630057 1.45252 1.17455 276.7287 -6.6461544
683 2 3.43598 1.33328 4.97665 -0.927768 -1.43957 0.500887 276.70175 -5.327508
730 3 1.48603 3.35521 5.08629 -1.35251 0.80181 1.11801 245.5482 -6.3371043
1353 2 -0.232203 -0.394879 6.8729 -1.29195 0.686476 -1.12548 218.57866 -6.5018845
1356 2 1.64207 1.59495 6.80723 -0.0352753 -0.015798 1.75544 292.01202 -5.030864
1357 1 3.2131 -0.349775 6.97155 -0.944938 -1.77437 -0.314604 238.95775 -6.2435713
1405 3 -0.362033 3.31319 7.04014 -1.05524 -0.25162 -1.57998 284.1623 -5.723907
1409 4 3.39798 3.2268 6.76996 0.908932 0.378908 -4.07193 268.06723 -6.22926
682 2 4.95345 -0.422976 5.0038 2.16784 -1.46594 1.78897 283.17975 -6.501244
686 1 8.73035 -0.29037 5.06126 0.0941089 0.958606 -0.580771 318.01382 -6.2633033
687 1 6.93035 1.318 5.00329 0.0455059 0.124057 -2.40243 329.12732 -5.810231
734 1 5.09298 3.20833 4.98384 0.887823 4.16498 -2.06608 297.3096 -6.6808753
738 3 8.73688 3.00998 4.99557 3.04518 -1.16078 3.91304 299.04404 -4.969714
1360 1 5.12756 1.52391 6.84183 -1.78288 -2.49035 -0.845881 302.01785 -5.8136563
1361 4 6.8296 -0.243503 6.86806 0.493162 1.58661 -0.811431 300.48856 -5.6889205
1364 4 8.60131 1.42186 6.92784 -1.21453 -0.38547 0.584778 353.9993 -6.172238
1413 3 6.82616 3.36466 6.75967 2.15895 -1.84049 1.71098 306.7562 -6.1172805
1365 5 10.5464 -0.442284 6.68658 -0.979844 0.505595 0.352 340.6252 -5.819452
690 3 12.2801 -0.567551 5.0026 -5.66499 -0.943648 0.395805 336.87442 -6.1211624
691 1 10.6776 1.45953 4.90552 0.365105 -1.7595 -0.737209 341.18378 -5.7122536
695 2 14.174 1.29659 4.84396 -2.29234 -4.20032 -0.111838 287.7347 -5.853073
742 4 12.5096 3.39324 5.08333 -0.462027 -1.93106 2.03821 322.88284 -4.8408666
1421 1 14.3497 3.18897 6.90709 -2.73025 -0.146398 1.67305 279.98724 -6.1221724
1368 3 12.2874 1.54725 6.80346 -2.56757 -1.38027 -0.494001 341.73813 -5.1046224
1369 5 14.1773 -0.254554 6.75402 -1.98557 -1.95909 -1.50619 315.34683 -5.611675
1417 4 10.4473 3.05537 6.90754 -0.190383 -3.39143 -2.15423 320.9018 -5.6212273
731 5 -0.332253 5.11127 5.04902 -0.528443 -1.05437 1.40539 324.63702 -7.0509844
735 3 3.2629 5.02752 4.97727 -1.76045 1.51445 2.65001 275.34726 -6.584882
782 2 1.60379 6.81585 5.10154 -1.43804 -2.04134 -0.365791 305.3399 -5.8898215
1408 3 1.60065 5.04612 6.97024 0.450066 1.49564 1.86958 287.5397 -5.607128
1457 1 -0.490856 6.94821 6.85344 -1.58619 2.63734 0.409323 305.69434 -6.540217
1461 1 3.37582 6.99277 6.91703 0.954434 2.17065 0.0783839 290.1886 -6.828958
739 3 6.84926 5.02338 4.92357 -1.75968 -2.67144 1.8866 326.2847 -6.3768396
786 3 4.95276 7.0071 4.95237 -2.3396 -0.643344 -3.32428 335.95358 -5.865913
790 3 8.729 7.02301 5.11674 0.933973 -1.84817 2.57981 288.5701 -6.1160474
1412 5 4.97783 5.00703 6.87288 0.244146 0.1926 2.23468 277.32257 -5.4372616
1416 5 8.72949 4.96361 6.75112 0.487544 0.540669 3.65846 271.57376 -6.207438
1465 5 6.91314 6.86148 6.80021 -1.66172 0.202851 -0.909728 308.5119 -6.5310087
1469 1 10.5389 6.80969 6.81631 2.41233 -2.3504 -0.0459455 283.8527 -6.496899
743 2 10.5255 4.94963 4.97898 -2.13582 -3.0602 -1.32664 279.81668 -5.7755485
747 1 14.1666 5.08389 4.99107 0.197079 -1.79778 -0.935734 325.64417 -6.6545043
794 5 12.3481 6.91342 5.05832 0.82008 -2.19394 0.549249 301.0863 -6.3238993
1420 2 12.417 4.78987 6.99349 -3.04194 -0.645502 -1.05477 305.43835 -4.1291027
1473 3 14.2679 6.87649 6.87412 -0.508282 -3.35866 -0.154151 306.50043 -6.5331206
1354 2 1.47849 -0.409156 8.75294 3.65872 -0.0538919 -0.134712 255.04608 -6.8485937
1355 3 -0.288271 1.45073 8.75125 0.128667 -1.52684 -2.60346 227.99916 -6.8395433
1359 4 3.2434 1.51695 8.80636 3.81506 -0.731444 -2.69826 252.17714 -6.840634
1406 3 1.47651 3.17423 8.64241 -1.47069 0.212419 -3.76324 230.70915 -5.584423
2081 5 -0.419556 3.18509 10.5977 -0.680764 1.49033 -2.24061 281.1156 -6.276631
2029 5 -0.3764 -0.3845 10.5924 -1.07426 -2.01171 -0.408379 236.54097 -6.59828
2030 3 1.47367 -0.475693 12.3292 -0.922516 -1.53298 -0.694752 278.74207 -6.3507457
2031 1 -0.32265 1.32418 12.614 -0.790629 1.20671 -0.17118 260.25574 -5.673436
2032 4 1.50401 1.54504 10.5999 4.29119 -2.47181 1.38992 249.55566 -6.161044
2033 4 3.26312 -0.45381 10.6304 2.11953 -3.83551 1.45467 300.33374 -6.7883306
2035 3 3.18773 1.43262 12.3543 -0.973303 -1.64953 2.91003 275.14368 -6.3211384
2082 3 1.45087 3.22696 12.4966 0.0778212 1.54174 0.0305215 285.6599 -7.486517
2085 4 3.30575 3.13113 10.7134 1.41988 1.0951 -2.28134 287.86127 -6.0264554
1358 2 4.93763 -0.327265 8.74078 -0.289997 1.21181 3.23999 282.86935 -6.2717767
1362 3 8.65175 -0.459832 8.58524 2.26804 -2.71208 5.28606 277.23563 -6.194014
1363 1 6.74885 1.50153 8.66733 2.07577 -1.52629 0.225434 300.90042 -6.2328258
1410 2 4.95254 3.25607 8.81706 0.321581 -2.48075 -3.29353 268.34622 -6.0996566
1414 3 8.69911 3.14722 8.60921 1.52397 -2.50091 -0.864762 271.56168 -6.487234
2037 2 6.7952 -0.416479 10.5314 3.79063 1.54445 -0.699549 323.27414 -6.493816
2034 4 5.11402 -0.390258 12.2564 -4.08012 -2.14557 -1.33582 297.82422 -5.765125
2036 1 5.04258 1.3653 10.5693 -1.70648 -0.296257 -0.453793 272.39087 -7.079117
2038 1 8.84125 -0.482534 12.2851 0.122362 -1.46095 -1.09628 299.25784 -6.2898607
2039 4 6.95771 1.33478 12.4018 0.606826 3.21844 1.29607 265.4584 -7.21745
2040 4 8.71808 1.30078 10.549 0.780012 -2.03507 -3.59699 281.1897 -7.0156493
2086 4 5.1215 3.12049 12.3765 0.213986 -0.816354 5.67646 287.58966 -6.2111454
2089 5 6.98079 3.14 10.6008 0.831927 -0.645765 -1.07415 290.2288 -6.8076196
2090 3 8.73835 3.07054 12.4168 -0.592851 1.06697 -2.72901 236.3635 -6.841817
1367 2 10.408 1.3874 8.81313 -2.05714 0.989228 -1.47096 323.64716 -5.7276225
2093 1 10.3432 3.2547 10.4452 -2.1163 -3.64046 -1.17191 270.802 -5.730012
2041 4 10.5838 -0.578246 10.5436 -1.66302 1.96669 -1.18467 292.53824 -5.9765806
2043 4 10.6533 1.3593 12.2703 1.22515 -0.919026 -3.95446 246.64595 -6.221046
1366 5 12.3039 -0.461622 8.66202 1.12783 -0.719914 1.11684 356.5418 -6.5923223
1371 2 14.135 1.35262 8.71714 5.09667 -0.320161 1.71251 302.37454 -6.238052
1418 1 12.1895 3.13087 8.60371 -0.565171 3.96699 -3.68833 294.02298 -5.199383
2097 2 14.2045 3.16642 10.4636 0.0756932 -3.72229 -0.755688 300.50934 -5.860856
2042 4 12.3265 -0.491503 12.2755 0.990273 0.258038 1.33316 279.1498 -6.7677503
2044 1 12.3024 1.55101 10.466 -0.134155 -1.27483 -1.50276 295.82877 -6.0536137
2045 1 14.2421 -0.406645 10.5878 1.90721 2.06649 0.890712 324.2759 -6.5480886
2047 2 14.1594 1.32024 12.2932 1.678 0.897728 2.07427 292.99707 -6.3748827
2094 5 12.2485 3.20394 12.426 1.78543 -0.00743979 -0.73562 280.02277 -6.3263044
1407 5 -0.376581 5.18303 8.71796 1.82266 -0.626972 -1.59034 313.37585 -6.08392
1411 2 3.22164 5.14058 8.73525 0.788717 -2.05726 2.80589 284.49673 -6.252455
1458 3 1.36854 6.949 8.66449 1.66488 2.18135 3.07358 301.8617 -5.8668714
2137 2 3.17794 6.89187 10.7078 -0.911489 -1.35305 -1.00257 293.8606 -6.832711
2083 2 -0.416218 5.08097 12.5113 -0.0397515 0.974504 -0.0427548 303.12695 -6.5775843
2084 3 1.44342 4.88531 10.5855 0.939057 0.618652 -1.08221 282.18338 -5.0699086
2087 3 3.15076 5.04101 12.5167 -0.0226368 1.15963 4.09757 266.62982 -6.173681
2133 2 -0.355241 6.92354 10.5316 -3.67775 1.48548 0.947914 300.9596 -5.9730716
2134 2 1.37507 6.82503 12.6239 -1.31491 -3.62891 -2.05404 240.94016 -6.016778
1415 4 6.98905 4.89883 8.74162 3.39431 3.50742 0.110579 267.40393 -5.213535
1462 2 5.06009 6.81608 8.82407 -1.81027 -0.362156 -1.66249 287.43027 -6.5986323
1466 5 8.6053 6.82772 8.84249 1.26881 1.01739 -1.83348 252.78519 -5.4529896
2088 5 5.12261 5.05124 10.6981 2.17684 0.596129 -0.548991 260.4389 -6.7620296
2091 4 7.06547 5.11454 12.4452 2.37887 0.294256 -0.234905 247.08275 -5.9981318
2092 1 8.69848 5.02346 10.5767 0.158604 -0.645119 3.53257 267.47253 -7.076796
2138 4 5.23924 6.85355 12.5005 -1.25074 -3.13704 -1.29055 241.3994 -5.729569
2141 3 6.89874 6.9974 10.6306 2.20472 1.394 -1.31648 271.76462 -6.3714995
2142 3 8.68899 6.9277 12.4017 -1.42298 -1.46764 -0.201568 220.34625 -6.9175735
2095 4 10.4066 5.02563 12.3456 -2.03621 -2.2537 -1.08814 239.7683 -6.3843102
2145 5 10.5947 6.83185 10.5759 1.8288 -0.171307 1.2615 241.12808 -6.6462784
1419 4 10.4458 5.01511 8.59829 1.14453 1.69349 -2.30244 259.1813 -6.5496945
1423 4 14.1661 4.99679 8.65145 3.0092 2.60979 1.58056 302.07608 -6.4156675
1470 1 12.4528 6.85964 8.60477 -2.29068 -1.64392 -2.73307 301.62836 -6.1756067
2096 5 12.3107 5.00085 10.5107 0.441067 1.30048 1.93664 267.71463 -6.944335
2149 2 14.1561 7.01801 10.5907 -4.39393 0.132878 -1.5955 308.20663 -6.253766
2099 5 14.1375 5.12423 12.4475 -2.25231 -1.0025 0.958462 263.91803 -6.4089885
2146 1 12.2548 6.89352 12.3709 -0.474122 1.53965 -0.443364 254.0248 -6.4814286
2761 5 3.2306 3.02567 14.3119 0.0133024 -0.154741 0.0920353 280.8038 -5.8824444
2705 1 -0.440322 -0.581675 14.2937 2.2419 0.457251 -2.82159 250.29143 -6.551549
2706 1 1.24236 -0.527132 16.0661 -1.28845 1.82919 -1.81312 249.92352 -4.5310206
2707 2 -0.308187 1.4182 16.0812 0.810865 4.72854 -2.74536 253.4329 -6.026112
2708 1 1.32171 1.3469 14.2874 -2.01999 -4.94696 -2.27653 278.20898 -6.5740304
2709 5 3.29163 -0.492205 14.3199 -0.816164 2.13914 2.51392 277.8337 -6.4400625
2711 2 3.15489 1.31597 16.2307 -1.69546 -0.610043 -0.93581 266.96405 -5.853289
2757 1 -0.271699 3.25054 14.259 0.0492766 0.518818 1.0694 270.6371 -6.0857024
2758 2 1.37146 3.27286 16.1491 -0.328264 2.26388 0.188086 284.60947 -6.071824
2710 3 5.16638 -0.427776 16.1445 -1.14141 0.856893 2.36731 261.84784 -6.6957116
2712 1 5.08054 1.36617 14.2073 -2.50427 -1.86834 -2.37082 273.51135 -6.3545804
2713 5 6.98912 -0.382941 14.152 0.620408 -1.22308 -0.0256476 272.73743 -6.510141
2714 4 8.82331 -0.465296 16.105 -1.47234 -4.57315 -0.185853 253.67667 -6.801736
2715 3 7.02151 1.24065 16.0113 -0.0419904 -1.97364 0.416252 274.1803 -5.998202
2716 4 8.77415 1.4412 14.2552 2.68403 -1.26481 -0.223221 266.4799 -6.5348425
2762 5 5.23383 3.10991 16.1718 0.172914 1.36299 2.50935 275.91815 -5.730988
2765 2 7.01001 3.09986 14.1059 -0.307559 0.406338 0.394131 243.71675 -5.7009435
2766 4 8.76275 3.172 16.2142 0.497109 1.53837 -2.0545 258.2739 -5.9289007
2719 2 10.5001 1.43984 16.0725 -0.990691 2.23266 1.19927 225.14305 -7.033438
2769 2 10.5919 3.14247 14.2319 -0.7464 1.57275 -0.540995 232.55835 -7.207828
2717 2 10.5824 -0.396399 14.3006 1.57216 -0.194156 3.2429 230.25264 -6.75721
2773 3 14.1082 3.2656 14.2134 -1.41613 0.594836 -2.34801 250.01242 -6.2950883
2770 4 12.2932 3.24 15.9393 2.21656 0.475649 -0.905288 230.72922 -5.7601223
2721 3 14.0933 -0.475868 14.0915 -1.17534 -2.01486 -0.242192 239.4932 -5.8452253
2718 2 12.3639 -0.361039 16.0923 -0.162613 1.4923 -1.30252 277.32068 -6.779773
2723 2 14.0489 1.47653 16.1348 0.193423 0.625456 -0.64582 233.5986 -5.6101704
2720 3 12.5017 1.28787 14.2277 -0.745798 -2.17036 -1.3654 236.01436 -5.9888177
2759 1 -0.55648 4.92119 16.0627 2.81337 -0.782128 -4.21574 278.43924 -6.473164
2760 4 1.38047 4.9844 14.263 2.27265 -3.66274 -0.553892 283.36258 -6.632727
2763 2 3.38753 4.90946 15.9963 0.407819 3.04775 0.650073 256.30103 -5.6303635
2809 1 -0.480334 6.8695 14.3367 0.607127 0.350462 0.193436 254.6444 -6.7659607
2810 5 1.352 6.76237 16.1497 0.484749 -0.13063 0.999436 230.05853 -6.253568
2813 5 3.28808 6.85989 14.4358 2.10102 1.39953 -1.22928 263.95715 -6.3121743
2764 5 5.2385 4.97602 14.1975 3.23985 0.386415 0.682523 230.43294 -6.10784
2767 1 7.00112 5.21564 16.1259 -0.777494 -1.25994 -2.97247 235.48407 -5.8196287
2768 4 8.70349 4.91003 14.232 -1.31012 -1.16133 0.433141 273.02124 -6.3180776
2814 4 5.2321 6.82655 16.167 -0.0121514 -1.10044 -3.04329 216.11153 -5.8946266
2817 4 7.01807 7.03388 14.2972 -3.25092 0.41687 -1.25345 238.86751 -5.7692003
2818 5 8.84555 6.84818 16.088 -0.0325427 2.02169 1.06187 216.33026 -6.049846
2771 3 10.5604 4.87162 16.0129 4.39173 1.41601 -0.104658 217.58336 -5.3913774
2821 3 10.469 6.90702 14.0906 0.3471 -1.76288 -1.16378 230.70218 -5.498565
2822 1 12.1944 6.89363 16.1477 0.518416 -0.0699542 2.59204 246.83458 -5.7121
2825 3 14.1978 6.74677 14.4082 -3.70922 -0.337609 -1.35351 251.14229 -4.624869
2772 3 12.2753 5.19763 14.2809 -1.49054 4.28653 1.33032 249.96062 -6.031704
2775 3 14.1696 5.04048 16.0447 3.79869 2.54478 -1.54955 246.0283 -6.246828
3381 2 -0.554642 -0.406318 18.0146 -0.744233 -1.17516 0.946205 266.1353 -6.458803
3382 4 1.50038 -0.366683 19.8765 -1.12504 -0.190703 -1.56784 267.65955 -6.371432
3383 1 -0.523707 1.31332 19.9045 2.52034 -2.56344 3.85082 288.00452 -6.419957
3384 5 1.44098 1.40773 18.1147 -0.593805 -1.84591 0.0948874 296.6922 -5.70269
3385 5 3.45669 -0.476955 18.0176 2.14044 1.59509 0.939549 283.48178 -5.677709
3387 2 3.63552 1.27746 19.9196 0.634274 -4.30511 -0.909869 289.116 -3.7784965
3433 4 -0.564534 3.14991 17.9357 2.2081 2.60841 1.89487 294.75766 -6.5028095
3434 5 1.3419 3.24473 19.8741 0.968943 -1.24257 -0.625907 320.7687 -5.3120475
3437 2 3.30395 3.3889 17.9798 3.31323 -2.05909 -0.505864 301.4251 -5.0914965
4057 3 -0.563322 -0.450732 21.5865 4.2209 1.27156 -1.81557 248.97937 -5.8677716
4060 4 1.37321 1.29133 21.5745 2.34447 -2.53704 0.668056 309.79706 -5.4302998
4061 5 3.30002 -0.44124 21.8443 0.210493 -0.575734 1.25847 300.04602 -5.354145
4109 1 -0.481787 3.06867 21.7051 -3.08685 -0.589417 -2.5626 338.95294 -6.187192
4113 2 3.31084 3.15664 21.5908 0.231566 0.760343 -2.07233 344.7235 -6.846068
3386 4 5.35688 -0.49973 20.0302 0.997265 -3.85846 1.87034 292.5269 -4.017803
3388 3 5.22344 1.50289 18.0018 1.10919 -2.43807 -1.24452 248.10953 -5.267236
3389 2 6.95028 -0.434577 17.9808 2.44186 2.39018 -2.17989 260.8986 -7.1492805
3390 3 8.80133 -0.386604 19.7504 2.58426 -0.526664 -1.63843 276.28607 -7.767623
3391 3 7.06816 1.3249 19.7089 1.89519 -1.00035 4.38653 310.50302 -6.001859
3392 3 8.75334 1.44067 17.9923 0.202495 0.883528 -2.78303 264.01172 -7.266238
3438 1 5.17986 3.2388 19.6616 0.519167 -1.79434 0.0550015 272.99713 -6.0485206
3441 3 7.07028 3.27707 18.0894 -0.314519 -0.491045 1.3861 257.89386 -5.4500527
3442 3 8.70825 3.20651 19.7251 -3.54436 -1.10114 0.752006 280.08228 -6.5408072
4064 4 5.31701 1.42768 21.6755 0.158838 -1.33381 0.455908 310.05374 -5.833537
4065 1 7.09758 -0.401286 21.6838 -0.582435 -2.20441 -2.68443 321.97958 -6.2457013
4068 1 8.65358 1.44985 21.5035 2.63468 -1.7989 -0.00301025 298.88635 -5.3748455
4117 4 7.03529 3.22524 21.5143 -2.53604 2.69654 1.81218 311.8093 -5.395648
3393 4 10.5756 -0.378706 17.9684 -3.33519 1.32586 1.82985 256.96295 -7.3210325
3445 4 10.5088 3.19389 17.9196 1.16956 3.72124 -5.22097 247.84709 -6.9071116
4121 5 10.5507 3.24889 21.4945 0.619599 1.012 1.33224 303.7598 -7.0031366
4069 5 10.6144 -0.406388 21.5211 -0.863145 0.788161 1.19905 282.90414 -6.2426195
4125 3 14.2674 3.14835 21.5915 2.39096 -1.27247 4.90165 243.41655 -6.342231
3394 3 12.4503 -0.379282 19.7053 -1.00862 -3.82916 2.28304 305.72903 -6.462747
3395 3 10.4865 1.47064 19.7941 -0.212528 1.11389 -2.1282 271.46445 -6.805117
3396 1 12.2721 1.45834 17.8986 -2.74477 -1.38702 0.154045 232.13219 -6.5138497
3397 4 14.0786 -0.505567 17.8392 -0.114873 -1.11249 -3.20024 259.56784 -6.2235484
3399 2 14.1456 1.34016 19.7494 1.83848 0.0347418 1.75403 241.28209 -6.261553
3446 1 12.4227 3.26043 19.7006 -0.43713 2.76593 -1.48403 284.33133 -7.344783
3449 5 14.2781 3.24604 17.9391 0.667753 -0.399093 -0.140998 246.90623 -6.347305
4073 1 14.1885 -0.49223 21.6861 0.973644 -1.53435 -2.62432 281.545 -7.0756326
4072 4 12.474 1.47135 21.4293 -1.61646 -0.439179 1.03471 295.54477 -4.7847815
3435 1 -0.501529 4.87946 19.8293 0.255463 -2.213 -1.1677 325.10168 -6.299178
3436 4 1.30622 4.8819 17.9965 3.49876 -2.48099 1.65209 285.77728 -5.6281257
3439 1 3.42586 5.01537 19.8291 0.593072 -4.63281 -1.33087 284.28192 -5.608179
3485 5 -0.593449 6.88669 17.8442 -2.23317 -0.480155 -2.04669 285.08682 -5.1504264
3486 5 1.42195 6.65114 19.818 1.36227 1.80656 -2.04435 303.5201 -5.650146
3489 5 3.27262 6.60538 17.9286 -2.32934 -0.315032 0.852874 268.47412 -5.4868217
4112 2 1.39644 4.81515 21.766 -0.451115 3.62091 -2.44048 315.7179 -5.242099
4161 1 -0.558465 6.77432 21.5049 5.46689 0.0289012 1.21236 338.21713 -5.500104
4165 4 3.33463 6.7736 21.5184 0.908525 5.05431 2.25699 297.36792 -5.859442
3440 1 5.28015 5.0664 18.0257 0.829714 -0.995608 2.02884 243.89728 -5.9710298
3443 1 7.00749 5.08228 19.7319 1.67926 3.01261 1.51973 295.71048 -7.2935266
3444 1 8.76414 5.09043 17.8602 1.39657 -3.12292 0.0516928 225.51738 -6.7332177
3490 4 5.25419 6.78142 19.7905 -2.25561 -0.203665 0.148422 257.68372 -6.166678
3493 4 6.90426 6.98593 17.9605 -0.60977 0.900775 0.420039 259.11914 -6.7343445
3494 5 8.73394 7.01678 19.7266 0.760872 -0.688362 0.841815 300.34244 -5.8510256
4116 5 5.12712 4.96708 21.6906 0.669308 -1.94517 -2.1124 309.3061 -6.9142566
4120 4 8.82843 5.1036 21.6354 -0.273957 -0.831927 2.92066 303.31186 -7.1567225
4169 2 6.95886 6.80748 21.6645 -2.81976 0.870454 -0.432767 309.21274 -6.364955
3447 2 10.5509 5.02176 19.7143 -0.0434195 -0.028935 -0.41005 275.89 -6.45752
4173 4 10.67 6.87234 21.737 1.53174 -2.31507 -1.42156 317.17053 -5.931252
3448 5 12.3681 5.1312 17.7981 -1.20451 -0.920877 -0.816451 241.81673 -5.8156314
3451 1 14.1357 5.11421 19.885 0.0810962 -1.45755 -0.0863774 274.30096 -6.234074
3497 2 10.5184 6.96632 17.9399 2.53705 -1.56877 -3.81867 280.45914 -6.838249
3498 2 12.3635 7.05764 19.8298 -1.97011 4.01651 0.410287 303.97363 -6.040166
3501 5 14.1583 7.09609 17.912 1.41142 -1.91836 0.516897 254.15904 -5.3580194
4124 5 12.4394 5.06781 21.6381 -0.114729 0.629823 0.437601 287.50378 -6.8086123
4177 1 14.2818 7.03135 21.7134 0.300883 -0.911183 -0.905106 276.24405 -5.7872553
4058 4 1.46525 -0.373276 23.5719 -0.132084 -0.768159 -3.33882 307.81357 -6.128518
4059 5 -0.595496 1.26467 23.5338 -0.284137 -0.871473 1.06292 328.38913 -5.9645987
4063 3 3.37091 1.30965 23.5182 1.23203 -1.82113 3.3055 305.21622 -6.1930237
4110 4 1.4558 3.00988 23.4901 -3.40693 -2.0677 0.481683 368.2225 -6.0828567
4733 3 -0.578652 -0.521135 25.463 2.46712 -4.8662 -2.50331 316.79074 -5.574942
4734 5 1.38624 -0.462254 27.0587 -0.0357543 0.675822 -1.55532 328.53375 -6.597742
4735 3 -0.542952 1.38038 27.05 1.03171 -0.316131 2.00807 345.08026 -6.472604
4736 1 1.35381 1.3431 25.2711 -2.24314 -0.0259539 2.98575 388.97937 -6.358646
4737 4 3.21713 -0.44157 25.2519 4.73783 -1.16754 4.23711 304.135 -6.258519
4785 1 -0.530754 3.1056 25.1522 -2.84826 -1.07926 -2.07666 344.3118 -5.5680423
4786 4 1.38848 3.17156 27.135 -3.29068 1.28049 1.80444 377.93768 -6.987047
4789 5 3.18493 3.08776 25.3389 -0.490393 -1.12988 1.66395 372.06262 -6.1005797
4062 1 5.2095 -0.453851 23.3978 -5.21074 1.91699 3.18823 317.7541 -5.4581356
4066 2 8.58259 -0.463843 23.56 1.17704 1.29691 -0.8225 297.40628 -4.9978466
4067 4 7.07281 1.40086 23.5456 -1.91529 0.768586 4.61204 325.9869 -6.014298
4114 5 5.2103 3.04652 23.5882 -0.524799 1.3225 1.34849 355.95737 -5.5870285
4118 1 8.64889 3.33529 23.2946 -4.86036 -2.88566 -3.63383 280.6145 -4.8859916
4738 3 5.07479 -0.448685 27.1562 3.55371 2.33262 1.25541 310.41943 -6.446421
4740 1 4.99396 1.27142 25.407 -1.03312 5.71461 0.597239 325.98593 -5.7415338
4741 4 6.82501 -0.504443 25.3541 1.11882 -1.20043 1.11776 320.36185 -5.792114
4742 5 8.70907 -0.443818 27.2522 -2.50141 1.47879 1.1605 255.52635 -6.6560583
4743 5 6.91142 1.38013 27.2518 3.33957 -0.36866 0.790443 319.0286 -6.486733
4744 3 8.90334 1.38916 25.3468 -2.427 -1.74695 -1.30602 302.09088 -5.4201565
4790 5 5.04254 3.13597 27.2579 0.737431 -0.105635 0.295932 300.972 -6.522775
4793 5 7.00802 3.35607 25.3778 0.514812 0.771982 -0.532301 289.6629 -5.6460476
4794 4 8.86226 3.14108 27.2647 1.27616 2.3651 3.94962 296.48444 -6.122853
4071 5 10.3875 1.43068 23.446 0.13035 0.468462 -0.268606 306.46094 -5.4380593
4745 5 10.5347 -0.480681 25.4137 0.29476 -1.34768 0.306769 286.9457 -6.3994484
4797 4 10.4604 3.23918 25.3983 -1.75525 0.434668 1.29732 285.05872 -6.5545244
4070 5 12.272 -0.322071 23.5941 1.48068 -0.148863 0.535253 287.07947 -5.546805
4075 3 14.2031 1.39383 23.4925 1.97498 -2.90663 1.76204 263.0061 -7.1577024
4122 2 12.2899 3.12303 23.4866 -1.39106 -0.811667 4.79335 269.14926 -6.8219805
4801 3 14.1614 3.22593 25.2364 1.27402 3.37271 1.21045 276.213 -6.9322467
4746 2 12.3904 -0.474984 27.1531 -2.03052 -0.635477 2.05583 271.01404 -6.730292
4747 3 10.616 1.38102 27.199 -1.38858 -1.26688 -1.58534 270.75525 -6.7582374
4748 1 12.2951 1.43136 25.2454 1.49137 -1.14427 2.23057 307.42737 -6.2531395
4749 4 14.2046 -0.508728 25.2752 0.314728 4.42837 -0.851301 293.69333 -6.1735206
4751 5 14.0854 1.49886 27.0128 -0.846154 2.55625 0.68226 306.02402 -5.68877
4798 3 12.2966 3.30526 27.1186 2.65729 -4.13527 0.605767 292.31448 -6.591089
4111 3 -0.538108 4.81499 23.2806 -5.11919 -0.178639 5.30792 319.11694 -4.8279924
4115 3 3.30343 5.03663 23.4006 0.700943 -1.38456 -1.11271 329.03772 -6.5394454
4162 5 1.38151 6.93794 23.2453 0.150733 -1.2632 -2.95056 352.97247 -5.8881016
4787 1 -0.391042 4.8501 27.2064 -0.31361 5.05284 -0.0336783 357.55527 -5.8983836
4788 2 1.47961 5.06626 25.162 -1.2726 -3.16695 2.50526 342.1769 -5.7176657
4791 3 3.10326 5.00938 27.1497 -4.2088 -0.24328 0.0609733 311.07825 -6.4486723
4837 5 -0.447803 6.64315 25.2277 0.0972378 -0.139226 0.399461 350.58264 -5.5067577
4838 5 1.35992 6.97767 27.1677 2.64632 0.31671 0.256444 361.0405 -6.3369865
4841 1 3.11481 6.93972 25.2535 2.49789 1.27527 -4.46897 319.1643 -6.7118397
4119 1 6.97743 5.10015 23.4698 1.29344 -2.42976 -3.41525 290.21173 -6.218241
4166 2 4.88009 6.92051 23.2901 -3.48808 -0.935632 0.71931 300.17285 -4.825795
4170 3 8.78452 6.8467 23.4441 0.365103 3.42597 1.526 269.78256 -7.1177473
4792 5 5.00048 5.07246 25.3742 0.350364 -0.244249 0.0771086 336.01028 -6.6646695
4795 5 6.90081 5.08249 27.262 -1.11768 0.696952 1.6893 317.18497 -6.227197
4796 4 8.85447 5.08824 25.3428 -2.75289 1.05174 0.535333 287.83704 -5.963057
4842 2 5.02481 6.97289 27.1253 -1.10963 0.768154 1.4076 293.7802 -6.786275
4845 5 6.9683 6.87349 25.1933 -2.67592 0.8942 2.94612 300.4484 -5.802124
4846 4 8.87447 6.95347 27.1697 -2.83776 -0.106762 2.61565 301.80814 -6.2351575
4123 3 10.5289 4.9799 23.5186 -1.61514 -2.71263 5.43476 284.119 -6.5957303
4849 3 10.4995 6.85124 25.287 -2.3651 -1.11287 -3.19579 331.06937 -6.541045
4127 1 14.1744 4.89171 23.4301 -3.11049 1.79867 -3.93672 265.43964 -5.4930663
4174 5 12.4213 6.81827 23.5704 -0.93761 1.49284 -2.33186 256.8844 -6.494786
4799 3 10.5292 5.03155 27.1323 -1.0069 2.46057 2.28649 288.85773 -7.263595
4800 3 12.327 4.91346 25.2108 -0.999163 -1.69668 -1.60317 292.066 -6.0995364
4850 1 12.3777 6.89999 27.0274 -1.4389 -0.854551 1.05132 301.09006 -6.512361
4853 4 14.2429 6.92318 25.4023 -0.221125 1.65426 2.03656 307.60498 -6.410972
4803 2 14.2044 5.05408 26.966 -1.98529 0.213703 -0.862163 326.43546 -6.77113
4739 2 3.31092 1.21612 27.3331 1.94864 -0.103848 0.671251 330.83633 -5.2101374
5409 5 -0.444289 -0.513135 29.0579 -1.82861 0.585029 -0.382046 279.337 -6.8325195
5410 5 1.3318 -0.571117 30.8159 0.649129 1.15099 -1.3474 249.72351 -6.5818787
5411 1 -0.346562 1.41332 30.8727 1.77046 2.33992 0.470884 278.00125 -5.6866336
5412 4 1.32188 1.39635 28.934 3.94489 -2.54045 -1.45553 332.8164 -6.572937
5413 4 3.20313 -0.626287 29.0176 -1.32634 1.08573 0.549359 290.87137 -5.7954044
5415 5 3.05319 1.34701 30.8362 1.87195 0.743194 -1.10142 278.00385 -5.9628816
5461 1 -0.482619 3.14077 29.0325 2.2136 -1.11592 4.68037 329.3099 -6.9951434
5462 4 1.34548 3.16388 30.9106 -2.58775 0.832891 0.0590992 289.6363 -6.433509
5465 2 3.21077 3.14942 28.992 0.526393 -1.26328 -6.11535 288.76752 -6.6657104
5414 3 4.96157 -0.535089 30.9005 -2.32096 1.36707 5.02991 263.1807 -6.696184
5416 1 4.97375 1.3171 29.2595 -0.443812 4.16354 -0.478864 299.93106 -5.2510757
5417 3 6.64934 -0.429967 29.0076 -0.294928 0.960992 -1.6519 280.95905 -5.192487
5418 3 8.71678 -0.574501 30.6452 2.09138 3.49713 1.06673 272.80112 -5.574825
5419 1 6.85634 1.3303 30.9303 2.07939 -0.734881 -0.684762 299.2846 -5.538101
5420 2 8.81414 1.4702 29.2554 -0.2712 0.691198 -1.50444 250.6782 -5.5627537
5466 3 5.0568 3.23941 30.973 0.704954 1.96356 -2.25986 263.99695 -5.8667064
5469 5 6.98683 3.15748 29.0969 -0.78771 0.0515408 0.534168 261.37363 -6.099438
5470 1 8.86473 3.39941 30.775 1.5509 -0.29061 -0.746467 265.8924 -5.54653
5421 1 10.5228 -0.482116 29.0467 1.88933 1.13011 -1.90111 270.79163 -6.702883
5422 1 12.4107 -0.515976 30.7366 1.01342 -0.827061 -0.246448 262.774 -5.9922256
5423 4 10.7242 1.25254 30.8035 -1.85291 2.76186 -0.249613 262.88745 -4.57751
5424 1 12.4793 1.42085 29.036 1.84626 1.08503 -1.64631 270.56577 -6.337682