ITEM: TIMESTEP
100000
ITEM: NUMBER OF ATOMS
8788
ITEM: BOX BOUNDS pp pp pp
-1.3709569000315263e+00 4.6370956900029782e+01
-1.3731076187153839e+00 4.6373107618714783e+01
-1.3664745802213076e+00 4.6366474580222111e+01
ITEM: ATOMS id type x y z vx vy vz temp entropy
1 2 -0.448434 -0.412529 -0.394795 0.754386 1.21172 0.0787555 283.5527047980439 -6.52663011314322
2 4 1.34518 -0.690968 1.38744 0.0142546 -2.79475 -1.16575 296.7607021815405 -4.9962344001021775
3 3 -0.31078 1.50208 1.44511 -2.50522 -0.874844 1.39575 311.4651732557252 -6.6115500496045065
4 5 1.30526 1.26999 -0.590132 0.639606 0.43566 0.366845 328.5642586399186 -6.318598387743528
5 5 3.25142 -0.474666 -0.478422 0.333561 0.0461567 0.292965 285.23144250531874 -6.859600996916792
7 2 3.15873 1.36916 1.29667 0.194191 2.59505 -0.896801 271.7827785577781 -5.925830604789625
53 1 -0.407199 3.19964 -0.437705 -1.76886 3.92488 0.0905076 276.1732673519061 -6.944666032441826
54 4 1.44167 3.30892 1.26985 0.420019 0.950919 -0.0982365 291.7149618045647 -6.685903313544634
57 4 3.12499 3.13653 -0.552316 1.46517 -0.870871 -2.37744 337.8618393566462 -5.967284314393616
677 3 -0.230838 -0.314946 3.32397 -3.49854 1.24658 0.362451 244.90917576172893 -6.054273255244139
680 2 1.48247 1.38586 3.1005 -0.421832 -1.47112 -2.63184 281.95996898377416 -6.674965106083578
681 3 3.24836 -0.549614 3.0744 1.16669 -1.32503 4.46621 261.9726309043172 -6.812561823231315
729 1 -0.193237 3.37204 3.11088 -0.420583 0.0540756 5.77799 247.56574441158725 -5.808574649571083
733 3 3.34985 3.36368 3.16864 -1.29028 3.79164 -7.26743 276.4632435598846 -6.258257885187623
6 1 5.05243 -0.424401 1.39132 -0.634218 -4.10562 -2.34307 273.2969540869206 -6.634701445971239
8 1 5.12009 1.33066 -0.526914 3.88657 1.93229 2.15062 271.94599085121894 -5.710435642426832
9 2 6.91445 -0.497009 -0.543292 -0.0497838 0.90219 -1.4314 289.5014066469756 -6.335729344839837
10 4 8.7127 -0.572581 1.40986 3.33747 1.78091 -3.06355 298.1028518166265 -6.911530714884002
11 2 6.88409 1.18904 1.37128 0.0447832 2.7761 2.45112 288.7540121863374 -4.960104100668466
12 2 8.5955 1.30387 -0.583048 3.30751 1.35486 -0.926892 288.79895817472146 -5.539565413822299
58 5 5.068 3.25042 1.2639 -0.298644 1.07482 0.561515 313.43804245205575 -6.396929581340346
61 1 6.98818 3.27722 -0.51799 1.00579 0.783271 3.00263 280.7874254701471 -6.0304272562084025
62 4 8.69573 3.19734 1.17397 1.44829 0.581013 -2.40664 288.5502190120313 -5.998461880625041
684 4 4.98225 1.39631 3.05374 1.78301 -1.68277 2.98617 272.7551906519042 -6.649576586479077
685 3 6.95415 -0.49729 3.40215 4.42039 2.46756 -3.02308 268.1058976165852 -4.907766124777974
688 4 8.66268 1.40393 3.12163 -1.3587 -3.76665 0.496114 323.07452167122983 -7.779155635432594
737 5 6.99957 3.30351 3.01601 -0.325905 -0.181799 0.0926724 331.03491366133125 -5.902158670343526
13 2 10.4485 -0.713983 -0.405219 1.20599 -2.02827 0.330256 282.4803674837433 -5.149060625984939
15 4 10.3569 1.2754 1.2215 1.10865 0.979473 -1.35785 307.5479829642461 -5.3908274557684965
65 3 10.4697 3.13449 -0.534813 1.5106 -1.40737 -3.86016 266.1521762623839 -5.905041670982923
689 3 10.5048 -0.30973 3.22101 1.23312 2.17114 3.48775 322.8226205428038 -5.650603261865869
745 5 14.1191 3.23909 3.12836 -0.949696 1.36056 -0.66699 268.8041352735978 -6.418864769016848
14 5 12.2633 -0.649009 1.36637 1.93931 2.69153 -1.51951 335.9645380933363 -5.958070602968778
741 4 10.5526 3.07245 3.15734 -1.26205 3.76314 -2.52193 317.4280779109332 -5.654598504249632
16 4 12.3191 1.24027 -0.522126 0.203374 -0.544162 -4.24371 293.1519601794011 -6.632658130788904
17 3 14.2135 -0.65967 -0.555016 -0.429271 -2.07745 -1.10701 287.35574237249097 -5.875957110933765
19 5 14.1531 1.16923 1.41341 1.55062 1.41359 -2.15236 309.2535938360799 -5.770392659678451
66 2 12.2017 3.11385 1.23848 0.577053 3.93054 2.24955 269.6437627537532 -5.72522320419906
69 2 14.1302 3.0246 -0.476688 -1.68827 -2.03273 -1.56768 271.2601220433241 -5.539165210282055
693 3 14.2061 -0.586508 3.16615 0.475892 0.55774 -2.9124 308.51735055134554 -5.930753526185595
692 4 12.3874 1.32419 3.25843 -3.564 -2.69431 0.91379 309.48775799932173 -5.742961387652007
55 5 -0.299407 5.13421 1.28662 -0.906947 0.51504 1.70143 293.22096855931375 -6.837601356745816
56 1 1.35827 5.11553 -0.539998 2.65261 -1.26506 -1.58116 327.3248720349478 -7.067662852676379
59 3 3.20705 5.07957 1.16549 1.52546 -2.52589 -0.740437 286.5819610300912 -5.848675737129876
105 4 -0.330533 7.04538 -0.379175 1.73733 0.79208 1.33476 311.6293115297505 -6.157872615340887
106 1 1.4699 7.0039 1.3605 0.823581 1.21188 -1.62717 307.9069654852691 -7.43831202631199
109 4 3.24502 6.99294 -0.343188 4.95261 -0.183028 3.58977 263.6933478792826 -6.13414770625638
732 4 1.5485 5.13345 3.18068 -2.7448 -1.25385 0.681966 294.85574508702166 -7.17013175092912
781 1 -0.234367 6.94544 3.27174 0.185881 -0.795703 -0.827867 269.5276937416187 -6.7647891038788295
785 1 3.22086 7.00508 3.09578 -1.63826 -1.25263 0.72369 316.97865080330484 -6.098403836362731
60 1 5.03401 5.13817 -0.573622 -2.89207 -1.7943 -0.649628 294.24310959849254 -6.347563126917957
63 3 6.93206 5.19867 1.27964 2.44401 2.81717 1.23132 339.37081920458957 -6.805084068758868
64 5 8.81934 5.18973 -0.540232 -1.00273 0.930442 -2.26306 255.31035521699857 -6.35407305814675
110 5 5.07662 7.0161 1.29991 -0.236345 -2.62031 3.49144 309.7146284518102 -7.059049176508374
113 4 6.99795 7.16771 -0.456842 -2.16417 1.6019 -0.627594 284.6000508804405 -5.451996182751658
114 2 8.68222 7.17907 1.31762 0.0572787 0.186759 1.71257 272.322554948136 -5.454258775075951
736 2 4.99964 5.27716 3.21246 0.613216 0.967724 -0.620921 297.21872923334297 -4.935832354130485
740 5 8.80068 5.28986 3.17952 -0.0406035 2.64263 -0.146701 305.04448259154634 -5.090330041599747
789 1 6.93526 6.98908 3.1199 0.152139 -2.46202 0.568328 323.5653202254803 -6.91607518870167
117 3 10.5054 6.91518 -0.476324 -1.39487 1.45759 -0.309662 251.35043546578018 -6.670250027854053
67 5 10.523 5.09254 1.4072 -0.703285 1.51701 -2.08104 276.2585419252259 -6.297850234141842
68 5 12.4211 5.1485 -0.534174 -1.17456 0.394854 -3.63611 216.76099570638968 -6.300126488514553
71 3 14.1089 5.22879 1.39284 1.69979 2.78337 -3.27712 274.85486290706257 -5.422685719065167
118 2 12.4632 6.98053 1.46267 0.811598 -1.20807 -2.55921 269.0668357798875 -6.199545640375883
797 1 14.2901 6.94536 3.14586 -0.600462 -2.04431 3.62775 314.3647435788688 -6.466363558606405
121 1 14.1302 6.95654 -0.433268 1.51087 3.88892 2.08761 251.4912165443025 -6.7642785113643695
744 2 12.3544 4.98725 3.1417 -2.41837 0.374949 1.7394 295.0180869179789 -6.403159222213969
793 2 10.5667 7.16164 3.17693 2.89437 -1.01268 -1.55689 321.4519326903827 -5.1218033216493914
678 4 1.59306 -0.377915 4.9552 -1.226 1.55258 1.19505 291.7192434404006 -6.009322789902886
679 5 -0.265592 1.54078 5.04135 0.630057 1.45252 1.17455 276.72868948637677 -6.646154496556761
683 2 3.43598 1.33328 4.97665 -0.927768 -1.43957 0.500887 276.70174098253653 -5.327508143524053
730 3 1.48603 3.35521 5.08629 -1.35251 0.80181 1.11801 245.54820155187565 -6.337104484181635
1353 2 -0.232203 -0.394879 6.8729 -1.29195 0.686476 -1.12548 218.57866632585993 -6.501884537931032
1356 2 1.64207 1.59495 6.80723 -0.0352753 -0.015798 1.75544 292.01202791166963 -5.030863544624875
1357 1 3.2131 -0.349775 6.97155 -0.944938 -1.77437 -0.314604 238.95774862535396 -6.243571168418873
1405 3 -0.362033 3.31319 7.04014 -1.05524 -0.25162 -1.57998 284.1622865610909 -5.72390707444891
1409 4 3.39798 3.2268 6.76996 0.908932 0.378908 -4.07193 268.0672346978372 -6.2292601435870205
682 2 4.95345 -0.422976 5.0038 2.16784 -1.46594 1.78897 283.1797370613721 -6.501244001102527
686 1 8.73035 -0.29037 5.06126 0.0941089 0.958606 -0.580771 322.6413022294941 -6.083932353453657
687 1 6.93035 1.318 5.00329 0.0455059 0.124057 -2.40243 329.12730683040377 -5.810231071922761
734 1 5.09298 3.20833 4.98384 0.887823 4.16498 -2.06608 297.3096015156888 -6.680875446373558
738 3 8.73688 3.00998 4.99557 3.04518 -1.16078 3.91304 299.04403422628525 -4.969714403130036
1360 1 5.12756 1.52391 6.84183 -1.78288 -2.49035 -0.845881 302.017841085905 -5.813656373664417
1361 4 6.8296 -0.243503 6.86806 0.493162 1.58661 -0.811431 300.48854786414256 -5.688920279397234
1364 4 8.60131 1.42186 6.92784 -1.21453 -0.38547 0.584778 353.999285022284 -6.172237641904465
1413 3 6.82616 3.36466 6.75967 2.15895 -1.84049 1.71098 306.7562040524027 -6.117280631591807
1365 5 10.5464 -0.442284 6.68658 -0.979844 0.505595 0.352 344.40389091446986 -5.507920645180872
690 3 12.2801 -0.567551 5.0026 -5.66499 -0.943648 0.395805 338.36000464763254 -5.650369687725795
691 1 10.6776 1.45953 4.90552 0.365105 -1.7595 -0.737209 345.57262402387204 -5.5211239214781616
695 2 14.174 1.29659 4.84396 -2.29234 -4.20032 -0.111838 290.52473509723677 -5.674559592003602
742 4 12.5096 3.39324 5.08333 -0.462027 -1.93106 2.03821 322.8828466351157 -4.8408664187476464
1421 1 14.3497 3.18897 6.90709 -2.73025 -0.146398 1.67305 279.9872549841958 -6.122172510763042
1368 3 12.2874 1.54725 6.80346 -2.56757 -1.38027 -0.494001 345.1442029243574 -5.377410970106507
1369 5 14.1773 -0.254554 6.75402 -1.98557 -1.95909 -1.50619 314.12755734418954 -5.690485157589819
1417 4 10.4473 3.05537 6.90754 -0.190383 -3.39143 -2.15423 320.90179826145214 -5.62122717177297
731 5 -0.332253 5.11127 5.04902 -0.528443 -1.05437 1.40539 324.6370256836239 -7.05098456101459
735 3 3.2629 5.02752 4.97727 -1.76045 1.51445 2.65001 275.34726296953477 -6.584881870530541
782 2 1.60379 6.81585 5.10154 -1.43804 -2.04134 -0.365791 305.3398919873228 -5.889821463884242
1408 3 1.60065 5.04612 6.97024 0.450066 1.49564 1.86958 287.5396895802064 -5.607128156555461
1457 1 -0.490856 6.94821 6.85344 -1.58619 2.63734 0.409323 305.6943261540883 -6.5402169949107645
1461 1 3.37582 6.99277 6.91703 0.954434 2.17065 0.0783839 290.18858338468067 -6.8289581053799715
739 3 6.84926 5.02338 4.92357 -1.75968 -2.67144 1.8866 326.2846877029854 -6.376839873963669
786 3 4.95276 7.0071 4.95237 -2.3396 -0.643344 -3.32428 335.95357271199356 -5.865912705868541
790 3 8.729 7.02301 5.11674 0.933973 -1.84817 2.57981 288.57009005471264 -6.116047162222405
1412 5 4.97783 5.00703 6.87288 0.244146 0.1926 2.23468 277.3225834846683 -5.437261581894451
1416 5 8.72949 4.96361 6.75112 0.487544 0.540669 3.65846 271.57376874795153 -6.207438194534178
1465 5 6.91314 6.86148 6.80021 -1.66172 0.202851 -0.909728 308.5119075488611 -6.5310087790842815
1469 1 10.5389 6.80969 6.81631 2.41233 -2.3504 -0.0459455 283.8526952074971 -6.496899166699259
743 2 10.5255 4.94963 4.97898 -2.13582 -3.0602 -1.32664 279.81668587919484 -5.775548564043218
747 1 14.1666 5.08389 4.99107 0.197079 -1.79778 -0.935734 325.64415105729006 -6.654504175511384
794 5 12.3481 6.91342 5.05832 0.82008 -2.19394 0.549249 301.08629997122165 -6.32389908391959
1420 2 12.417 4.78987 6.99349 -3.04194 -0.645502 -1.05477 305.43836454288595 -4.129102589123661
1473 3 14.2679 6.87649 6.87412 -0.508282 -3.35866 -0.154151 306.50042776358373 -6.533120806247536
1354 2 1.47849 -0.409156 8.75294 3.65872 -0.0538919 -0.134712 255.0460778630543 -6.848593624688624
1355 3 -0.288271 1.45073 8.75125 0.128667 -1.52684 -2.60346 227.99915562312907 -6.839543175813771
1359 4 3.2434 1.51695 8.80636 3.81506 -0.731444 -2.69826 252.17713677916467 -6.84063383179401
1406 3 1.47651 3.17423 8.64241 -1.47069 0.212419 -3.76324 230.7091533867503 -5.584422940242685
2081 5 -0.419556 3.18509 10.5977 -0.680764 1.49033 -2.24061 281.11560295479956 -6.27663079821608
2029 5 -0.3764 -0.3845 10.5924 -1.07426 -2.01171 -0.408379 236.54096644633108 -6.598279955163002
2030 3 1.47367 -0.475693 12.3292 -0.922516 -1.53298 -0.694752 278.7420633520593 -6.3507455833893305
2031 1 -0.32265 1.32418 12.614 -0.790629 1.20671 -0.17118 260.25575050361897 -5.673436360108664
2032 4 1.50401 1.54504 10.5999 4.29119 -2.47181 1.38992 249.555660946242 -6.161044166149691
2033 4 3.26312 -0.45381 10.6304 2.11953 -3.83551 1.45467 300.3337383369632 -6.788330641574899
2035 3 3.18773 1.43262 12.3543 -0.973303 -1.64953 2.91003 275.1436747523003 -6.321138405737955
2082 3 1.45087 3.22696 12.4966 0.0778212 1.54174 0.0305215 285.6599004300799 -7.486516916709716
2085 4 3.30575 3.13113 10.7134 1.41988 1.0951 -2.28134 287.8612800245317 -6.026455245813414
1358 2 4.93763 -0.327265 8.74078 -0.289997 1.21181 3.23999 282.86936841353713 -6.2717766580751775
1362 3 8.65175 -0.459832 8.58524 2.26804 -2.71208 5.28606 280.82758459419824 -6.000812208368263
1363 1 6.74885 1.50153 8.66733 2.07577 -1.52629 0.225434 300.90042434655095 -6.232825614094381
1410 2 4.95254 3.25607 8.81706 0.321581 -2.48075 -3.29353 268.34623224325696 -6.099656752517837
1414 3 8.69911 3.14722 8.60921 1.52397 -2.50091 -0.864762 271.5616748154961 -6.4872341404690586
2037 2 6.7952 -0.416479 10.5314 3.79063 1.54445 -0.699549 323.27412955669917 -6.493815905091047
2034 4 5.11402 -0.390258 12.2564 -4.08012 -2.14557 -1.33582 297.82420739457774 -5.765124736213395
2036 1 5.04258 1.3653 10.5693 -1.70648 -0.296257 -0.453793 272.39087326920696 -7.0791169279524455
2038 1 8.84125 -0.482534 12.2851 0.122362 -1.46095 -1.09628 299.2578466343929 -6.289860579234356
2039 4 6.95771 1.33478 12.4018 0.606826 3.21844 1.29607 265.45841285307785 -7.217450146029684
2040 4 8.71808 1.30078 10.549 0.780012 -2.03507 -3.59699 281.18970745608215 -7.015649352329252
2086 4 5.1215 3.12049 12.3765 0.213986 -0.816354 5.67646 287.5896579524362 -6.211145581434753
2089 5 6.98079 3.14 10.6008 0.831927 -0.645765 -1.07415 290.2287949881181 -6.8076195902908845
2090 3 8.73835 3.07054 12.4168 -0.592851 1.06697 -2.72901 236.36349852088864 -6.841816720676838
1367 2 10.408 1.3874 8.81313 -2.05714 0.989228 -1.47096 328.2231460311129 -5.5846099744051365
2093 1 10.3432 3.2547 10.4452 -2.1163 -3.64046 -1.17191 270.8019930929638 -5.730012047486246
2041 4 10.5838 -0.578246 10.5436 -1.66302 1.96669 -1.18467 296.1676953741584 -5.789448380760098
2043 4 10.6533 1.3593 12.2703 1.22515 -0.919026 -3.95446 246.64594412466553 -6.221046087079331
1366 5 12.3039 -0.461622 8.66202 1.12783 -0.719914 1.11684 356.56306328369715 -6.067398549604333
1371 2 14.135 1.35262 8.71714 5.09667 -0.320161 1.71251 305.85623980501725 -6.06076863558765
1418 1 12.1895 3.13087 8.60371 -0.565171 3.96699 -3.68833 294.02297870950895 -5.199382924553002
2097 2 14.2045 3.16642 10.4636 0.0756932 -3.72229 -0.755688 300.5093363865642 -5.860855986226225
2042 4 12.3265 -0.491503 12.2755 0.990273 0.258038 1.33316 279.14980018284285 -6.767750071952651
2044 1 12.3024 1.55101 10.466 -0.134155 -1.27483 -1.50276 295.8287641028541 -6.05361357709865
2045 1 14.2421 -0.406645 10.5878 1.90721 2.06649 0.890712 327.9109821310217 -6.521707543231267
2047 2 14.1594 1.32024 12.2932 1.678 0.897728 2.07427 292.9970789205552 -6.374882813904158
2094 5 12.2485 3.20394 12.426 1.78543 -0.00743979 -0.73562 280.02277256689746 -6.326304599121409
1407 5 -0.376581 5.18303 8.71796 1.82266 -0.626972 -1.59034 313.37583939661573 -6.0839200843936565
1411 2 3.22164 5.14058 8.73525 0.788717 -2.05726 2.80589 284.49672046524273 -6.25245505440176
1458 3 1.36854 6.949 8.66449 1.66488 2.18135 3.07358 301.861699677071 -5.866871350576969
2137 2 3.17794 6.89187 10.7078 -0.911489 -1.35305 -1.00257 293.8606061792481 -6.832711346642366
2083 2 -0.416218 5.08097 12.5113 -0.0397515 0.974504 -0.0427548 303.1269584833123 -6.577584426612167
2084 3 1.44342 4.88531 10.5855 0.939057 0.618652 -1.08221 282.1833863612159 -5.069908801334916
2087 3 3.15076 5.04101 12.5167 -0.0226368 1.15963 4.09757 266.62982449345964 -6.173680966385257
2133 2 -0.355241 6.92354 10.5316 -3.67775 1.48548 0.947914 300.9595936297725 -5.973071788459597
2134 2 1.37507 6.82503 12.6239 -1.31491 -3.62891 -2.05404 240.94015658178617 -6.016777785742907
1415 4 6.98905 4.89883 8.74162 3.39431 3.50742 0.110579 267.40394533895477 -5.2135346156927715
1462 2 5.06009 6.81608 8.82407 -1.81027 -0.362156 -1.66249 287.4302701904418 -6.598632225862729
1466 5 8.6053 6.82772 8.84249 1.26881 1.01739 -1.83348 252.78519286765518 -5.452989548293269
2088 5 5.12261 5.05124 10.6981 2.17684 0.596129 -0.548991 260.43890505331484 -6.762029625259566
2091 4 7.06547 5.11454 12.4452 2.37887 0.294256 -0.234905 247.08274783469562 -5.998131899523602
2092 1 8.69848 5.02346 10.5767 0.158604 -0.645119 3.53257 267.4725329729532 -7.076796022048462
2138 4 5.23924 6.85355 12.5005 -1.25074 -3.13704 -1.29055 241.3994044438948 -5.729569170483007
2141 3 6.89874 6.9974 10.6306 2.20472 1.394 -1.31648 271.7646125579887 -6.371499714772287
2142 3 8.68899 6.9277 12.4017 -1.42298 -1.46764 -0.201568 220.34625584741607 -6.917573369180764
2095 4 10.4066 5.02563 12.3456 -2.03621 -2.2537 -1.08814 239.76830221137047 -6.384310286571885
2145 5 10.5947 6.83185 10.5759 1.8288 -0.171307 1.2615 241.1280828698406 -6.646278565395149
1419 4 10.4458 5.01511 8.59829 1.14453 1.69349 -2.30244 259.18131675617843 -6.5496946941316105
1423 4 14.1661 4.99679 8.65145 3.0092 2.60979 1.58056 302.0760746100674 -6.415667517614291
1470 1 12.4528 6.85964 8.60477 -2.29068 -1.64392 -2.73307 301.62835199442713 -6.17560675478658
2096 5 12.3107 5.00085 10.5107 0.441067 1.30048 1.93664 267.7146323867966 -6.9443348498864905
2149 2 14.1561 7.01801 10.5907 -4.39393 0.132878 -1.5955 308.2066467986711 -6.2537660835657904
2099 5 14.1375 5.12423 12.4475 -2.25231 -1.0025 0.958462 263.9180382931864 -6.40898849180123
2146 1 12.2548 6.89352 12.3709 -0.474122 1.53965 -0.443364 254.02480199167087 -6.481428808620987
2761 5 3.2306 3.02567 14.3119 0.0133024 -0.154741 0.0920353 280.8038133890547 -5.882444494920459
2705 1 -0.440322 -0.581675 14.2937 2.2419 0.457251 -2.82159 250.2914300656983 -6.5515491334293765
2706 1 1.24236 -0.527132 16.0661 -1.28845 1.82919 -1.81312 249.92351720658112 -4.531020595506824
2707 2 -0.308187 1.4182 16.0812 0.810865 4.72854 -2.74536 253.43290920261862 -6.026112124669468
2708 1 1.32171 1.3469 14.2874 -2.01999 -4.94696 -2.27653 278.20898455678673 -6.5740303499496795
2709 5 3.29163 -0.492205 14.3199 -0.816164 2.13914 2.51392 277.8337134554368 -6.440062530405348
2711 2 3.15489 1.31597 16.2307 -1.69546 -0.610043 -0.93581 266.96406051925925 -5.853289358653675
2757 1 -0.271699 3.25054 14.259 0.0492766 0.518818 1.0694 270.6370802054241 -6.085702539941985
2758 2 1.37146 3.27286 16.1491 -0.328264 2.26388 0.188086 284.6094529588076 -6.071824012166934
2710 3 5.16638 -0.427776 16.1445 -1.14141 0.856893 2.36731 261.8478268386234 -6.695711642316755
2712 1 5.08054 1.36617 14.2073 -2.50427 -1.86834 -2.37082 273.5113578660438 -6.354580615572092
2713 5 6.98912 -0.382941 14.152 0.620408 -1.22308 -0.0256476 272.73742982751736 -6.5101408900195805
2714 4 8.82331 -0.465296 16.105 -1.47234 -4.57315 -0.185853 253.67666623953292 -6.801736016929193
2715 3 7.02151 1.24065 16.0113 -0.0419904 -1.97364 0.416252 274.180285602035 -5.998201856650331
2716 4 8.77415 1.4412 14.2552 2.68403 -1.26481 -0.223221 266.4798830374997 -6.534842527514922
2762 5 5.23383 3.10991 16.1718 0.172914 1.36299 2.50935 275.91816081789915 -5.730987873400488
2765 2 7.01001 3.09986 14.1059 -0.307559 0.406338 0.394131 243.71675721115483 -5.700943446374562
2766 4 8.76275 3.172 16.2142 0.497109 1.53837 -2.0545 258.2738946575973 -5.928900532885128
2719 2 10.5001 1.43984 16.0725 -0.990691 2.23266 1.19927 225.143050915739 -7.033438343565604
2769 2 10.5919 3.14247 14.2319 -0.7464 1.57275 -0.540995 232.55834498263457 -7.207828192109369
2717 2 10.5824 -0.396399 14.3006 1.57216 -0.194156 3.2429 230.25263219786706 -6.7572097334485575
2773 3 14.1082 3.2656 14.2134 -1.41613 0.594836 -2.34801 250.01242193262416 -6.295088162375283
2770 4 12.2932 3.24 15.9393 2.21656 0.475649 -0.905288 230.72922485137207 -5.76012241555582
2721 3 14.0933 -0.475868 14.0915 -1.17534 -2.01486 -0.242192 239.49319580375396 -5.8452251228633
2718 2 12.3639 -0.361039 16.0923 -0.162613 1.4923 -1.30252 277.32067806397157 -6.779773238265854
2723 2 14.0489 1.47653 16.1348 0.193423 0.625456 -0.64582 233.59860847201983 -5.610170407438136
2720 3 12.5017 1.28787 14.2277 -0.745798 -2.17036 -1.3654 236.01436276794493 -5.988817563113139
2759 1 -0.55648 4.92119 16.0627 2.81337 -0.782128 -4.21574 278.4392385303895 -6.4731642082610845
2760 4 1.38047 4.9844 14.263 2.27265 -3.66274 -0.553892 283.36258212585346 -6.6327273180181905
2763 2 3.38753 4.90946 15.9963 0.407819 3.04775 0.650073 256.301021140634 -5.630363456985462
2809 1 -0.480334 6.8695 14.3367 0.607127 0.350462 0.193436 254.64440147961426 -6.765960753105953
2810 5 1.352 6.76237 16.1497 0.484749 -0.13063 0.999436 230.05852606780914 -6.253568028742661
2813 5 3.28808 6.85989 14.4358 2.10102 1.39953 -1.22928 263.95715226780965 -6.312174158882678
2764 5 5.2385 4.97602 14.1975 3.23985 0.386415 0.682523 230.432944359109 -6.107839832976092
2767 1 7.00112 5.21564 16.1259 -0.777494 -1.25994 -2.97247 235.48407605389795 -5.819628546711107
2768 4 8.70349 4.91003 14.232 -1.31012 -1.16133 0.433141 273.02122806664613 -6.3180775504654445
2814 4 5.2321 6.82655 16.167 -0.0121514 -1.10044 -3.04329 216.11152846213403 -5.894626655993464
2817 4 7.01807 7.03388 14.2972 -3.25092 0.41687 -1.25345 238.86750739466018 -5.7692001676709355
2818 5 8.84555 6.84818 16.088 -0.0325427 2.02169 1.06187 216.33026185337886 -6.049846212080686
2771 3 10.5604 4.87162 16.0129 4.39173 1.41601 -0.104658 217.58335600990935 -5.391377283692979
2821 3 10.469 6.90702 14.0906 0.3471 -1.76288 -1.16378 230.70217412431248 -5.498565185540369
2822 1 12.1944 6.89363 16.1477 0.518416 -0.0699542 2.59204 246.83458515088597 -5.712100147238429
2825 3 14.1978 6.74677 14.4082 -3.70922 -0.337609 -1.35351 251.1422893584298 -4.624869053724386
2772 3 12.2753 5.19763 14.2809 -1.49054 4.28653 1.33032 249.96061081554035 -6.031704045881224
2775 3 14.1696 5.04048 16.0447 3.79869 2.54478 -1.54955 246.0283001779223 -6.246828146126858
3381 2 -0.554642 -0.406318 18.0146 -0.744233 -1.17516 0.946205 266.1353243907083 -6.458803412585597
3382 4 1.50038 -0.366683 19.8765 -1.12504 -0.190703 -1.56784 267.65953301683936 -6.371431713469489
3383 1 -0.523707 1.31332 19.9045 2.52034 -2.56344 3.85082 288.0045256258439 -6.41995723821923
3384 5 1.44098 1.40773 18.1147 -0.593805 -1.84591 0.0948874 296.6921860912092 -5.702690142553626
3385 5 3.45669 -0.476955 18.0176 2.14044 1.59509 0.939549 283.48176938858694 -5.67770902402054
3387 2 3.63552 1.27746 19.9196 0.634274 -4.30511 -0.909869 289.11598762690403 -3.7784964628906006
3433 4 -0.564534 3.14991 17.9357 2.2081 2.60841 1.89487 294.7576727934735 -6.502809466444801
3434 5 1.3419 3.24473 19.8741 0.968943 -1.24257 -0.625907 320.7687041982889 -5.3120476547022095
3437 2 3.30395 3.3889 17.9798 3.31323 -2.05909 -0.505864 301.42512377108744 -5.091496340837809
4057 3 -0.563322 -0.450732 21.5865 4.2209 1.27156 -1.81557 248.97936260088505 -5.867771550774011
4060 4 1.37321 1.29133 21.5745 2.34447 -2.53704 0.668056 309.79704629163496 -5.430299866083813
4061 5 3.30002 -0.44124 21.8443 0.210493 -0.575734 1.25847 300.04600994100707 -5.354145023651697
4109 1 -0.481787 3.06867 21.7051 -3.08685 -0.589417 -2.5626 338.95293289407806 -6.18719217672639
4113 2 3.31084 3.15664 21.5908 0.231566 0.760343 -2.07233 344.7235172347124 -6.846068051497462
3386 4 5.35688 -0.49973 20.0302 0.997265 -3.85846 1.87034 292.526892679477 -4.017803306477044
3388 3 5.22344 1.50289 18.0018 1.10919 -2.43807 -1.24452 248.1095335421904 -5.267236117658022
3389 2 6.95028 -0.434577 17.9808 2.44186 2.39018 -2.17989 260.8985809238267 -7.149280315832637
3390 3 8.80133 -0.386604 19.7504 2.58426 -0.526664 -1.63843 276.28607057903815 -7.7676230329345906
3391 3 7.06816 1.3249 19.7089 1.89519 -1.00035 4.38653 310.5030178460812 -6.001859185847799
3392 3 8.75334 1.44067 17.9923 0.202495 0.883528 -2.78303 264.0117270476047 -7.266238112787605
3438 1 5.17986 3.2388 19.6616 0.519167 -1.79434 0.0550015 272.99714219432775 -6.048520587661607
3441 3 7.07028 3.27707 18.0894 -0.314519 -0.491045 1.3861 257.8938671430582 -5.450052827614451
3442 3 8.70825 3.20651 19.7251 -3.54436 -1.10114 0.752006 280.08226758986007 -6.540807414886588
4064 4 5.31701 1.42768 21.6755 0.158838 -1.33381 0.455908 310.0537524751133 -5.833536976958319
4065 1 7.09758 -0.401286 21.6838 -0.582435 -2.20441 -2.68443 321.97957286478123 -6.245701193730436
4068 1 8.65358 1.44985 21.5035 2.63468 -1.7989 -0.00301025 298.886355851261 -5.3748454965765315
4117 4 7.03529 3.22524 21.5143 -2.53604 2.69654 1.81218 311.8093014180239 -5.395648026170355
3393 4 10.5756 -0.378706 17.9684 -3.33519 1.32586 1.82985 256.9629472556779 -7.321032331559613
3445 4 10.5088 3.19389 17.9196 1.16956 3.72124 -5.22097 247.84709670459327 -6.907111500069072
4121 5 10.5507 3.24889 21.4945 0.619599 1.012 1.33224 303.759783537184 -7.0031365131280525
4069 5 10.6144 -0.406388 21.5211 -0.863145 0.788161 1.19905 282.90414791931477 -6.24261943081816
4125 3 14.2674 3.14835 21.5915 2.39096 -1.27247 4.90165 243.41654407582985 -6.3422306854671815
3394 3 12.4503 -0.379282 19.7053 -1.00862 -3.82916 2.28304 305.72902385285863 -6.4627472159303885
3395 3 10.4865 1.47064 19.7941 -0.212528 1.11389 -2.1282 271.4644530186064 -6.8051172691135395
3396 1 12.2721 1.45834 17.8986 -2.74477 -1.38702 0.154045 232.1321918317368 -6.513849916968501
3397 4 14.0786 -0.505567 17.8392 -0.114873 -1.11249 -3.20024 259.56783103489045 -6.223548603260056
3399 2 14.1456 1.34016 19.7494 1.83848 0.0347418 1.75403 241.28208547056138 -6.261552790287728
3446 1 12.4227 3.26043 19.7006 -0.43713 2.76593 -1.48403 284.3313273280093 -7.344783044126107
3449 5 14.2781 3.24604 17.9391 0.667753 -0.399093 -0.140998 246.90623113759156 -6.3473046384153005
4073 1 14.1885 -0.49223 21.6861 0.973644 -1.53435 -2.62432 281.5450253018746 -7.075632541497175
4072 4 12.474 1.47135 21.4293 -1.61646 -0.439179 1.03471 295.5447713597542 -4.7847815076894955
3435 1 -0.501529 4.87946 19.8293 0.255463 -2.213 -1.1677 325.10168893307963 -6.2991781921578776
3436 4 1.30622 4.8819 17.9965 3.49876 -2.48099 1.65209 285.777295164674 -5.628125683392031
3439 1 3.42586 5.01537 19.8291 0.593072 -4.63281 -1.33087 284.2819183021647 -5.608179305663331
3485 5 -0.593449 6.88669 17.8442 -2.23317 -0.480155 -2.04669 285.0868090421437 -5.150426572712636
3486 5 1.42195 6.65114 19.818 1.36227 1.80656 -2.04435 303.5200991018591 -5.6501462285005735
3489 5 3.27262 6.60538 17.9286 -2.32934 -0.315032 0.852874 268.47412449162164 -5.48682174539059
4112 2 1.39644 4.81515 21.766 -0.451115 3.62091 -2.44048 315.7178941201392 -5.242099018088969
4161 1 -0.558465 6.77432 21.5049 5.46689 0.0289012 1.21236 338.2171416563223 -5.500104103031163
4165 4 3.33463 6.7736 21.5184 0.908525 5.05431 2.25699 297.367918489456 -5.859442347726248
3440 1 5.28015 5.0664 18.0257 0.829714 -0.995608 2.02884 243.89727409562266 -5.971029687871288
3443 1 7.00749 5.08228 19.7319 1.67926 3.01261 1.51973 295.7104823254838 -7.293526467511003
3444 1 8.76414 5.09043 17.8602 1.39657 -3.12292 0.0516928 225.51738634959966 -6.733217804316524
3490 4 5.25419 6.78142 19.7905 -2.25561 -0.203665 0.148422 257.6837145233182 -6.166678055199609
3493 4 6.90426 6.98593 17.9605 -0.60977 0.900775 0.420039 259.1191462477673 -6.7343444640773855
3494 5 8.73394 7.01678 19.7266 0.760872 -0.688362 0.841815 300.3424375268353 -5.851025378659468
4116 5 5.12712 4.96708 21.6906 0.669308 -1.94517 -2.1124 309.3060941938402 -6.914256424562719
4120 4 8.82843 5.1036 21.6354 -0.273957 -0.831927 2.92066 303.3118534414135 -7.156722462995335
4169 2 6.95886 6.80748 21.6645 -2.81976 0.870454 -0.432767 309.2127485093733 -6.3649551712027765
3447 2 10.5509 5.02176 19.7143 -0.0434195 -0.028935 -0.41005 275.8900011330398 -6.457520165593657
4173 4 10.67 6.87234 21.737 1.53174 -2.31507 -1.42156 317.17054392074334 -5.93125195648434
3448 5 12.3681 5.1312 17.7981 -1.20451 -0.920877 -0.816451 241.81671906324726 -5.815631459474608
3451 1 14.1357 5.11421 19.885 0.0810962 -1.45755 -0.0863774 274.3009551323999 -6.23407390938292
3497 2 10.5184 6.96632 17.9399 2.53705 -1.56877 -3.81867 280.45912931267554 -6.838249401416716
3498 2 12.3635 7.05764 19.8298 -1.97011 4.01651 0.410287 303.97364583223174 -6.040165833621271
3501 5 14.1583 7.09609 17.912 1.41142 -1.91836 0.516897 254.15903526550522 -5.3580193512945815
4124 5 12.4394 5.06781 21.6381 -0.114729 0.629823 0.437601 287.50376918167785 -6.8086122598394825
4177 1 14.2818 7.03135 21.7134 0.300883 -0.911183 -0.905106 276.2440430663603 -5.787255476165161
4058 4 1.46525 -0.373276 23.5719 -0.132084 -0.768159 -3.33882 307.81355444328176 -6.1285179275642765
4059 5 -0.595496 1.26467 23.5338 -0.284137 -0.871473 1.06292 328.3891443186334 -5.964598555263587
4063 3 3.37091 1.30965 23.5182 1.23203 -1.82113 3.3055 305.2162162302505 -6.19302367820033
4110 4 1.4558 3.00988 23.4901 -3.40693 -2.0677 0.481683 368.22250958378487 -6.082856618617256
4733 3 -0.578652 -0.521135 25.463 2.46712 -4.8662 -2.50331 316.7907261056596 -5.574942313208912
4734 5 1.38624 -0.462254 27.0587 -0.0357543 0.675822 -1.55532 328.53376750529173 -6.597742199964658
4735 3 -0.542952 1.38038 27.05 1.03171 -0.316131 2.00807 345.08026307807023 -6.472603798660376
4736 1 1.35381 1.3431 25.2711 -2.24314 -0.0259539 2.98575 388.979355776109 -6.358645994136798
4737 4 3.21713 -0.44157 25.2519 4.73783 -1.16754 4.23711 304.13501963140163 -6.258519407115484
4785 1 -0.530754 3.1056 25.1522 -2.84826 -1.07926 -2.07666 344.3117980628891 -5.568042393970581
4786 4 1.38848 3.17156 27.135 -3.29068 1.28049 1.80444 377.9376871908873 -6.987047353671332
4789 5 3.18493 3.08776 25.3389 -0.490393 -1.12988 1.66395 372.0626236458561 -6.100579901482593
4062 1 5.2095 -0.453851 23.3978 -5.21074 1.91699 3.18823 317.7540742591283 -5.458135572593475
4066 2 8.58259 -0.463843 23.56 1.17704 1.29691 -0.8225 297.40629152052225 -4.997846416730045
4067 4 7.07281 1.40086 23.5456 -1.91529 0.768586 4.61204 325.98691885182205 -6.014297888485226
4114 5 5.2103 3.04652 23.5882 -0.524799 1.3225 1.34849 355.9573545402398 -5.587028305976707
4118 1 8.64889 3.33529 23.2946 -4.86036 -2.88566 -3.63383 280.6145149650762 -4.88599151510999
4738 3 5.07479 -0.448685 27.1562 3.55371 2.33262 1.25541 310.4194216839991 -6.446420961921534
4740 1 4.99396 1.27142 25.407 -1.03312 5.71461 0.597239 325.98594384345336 -5.74153388705054