## Same as atomic_basic but the Atoms data rows are column-aligned with
## multiple spaces between fields — must trigger the slow path in read_data.
4 atoms
1 atom types

0.0 4.0 xlo xhi
0.0 4.0 ylo yhi
0.0 4.0 zlo zhi

Atoms  # atomic

   1   1    0.000    0.000    0.000
   2   1    2.000    0.000    0.000
   3   1    0.000    2.000    0.000
   4   1    2.000    2.000    0.000
