## atomic style on a triclinic (tilted) cell.
2 atoms
1 atom types

0.0 4.0 xlo xhi
0.0 4.0 ylo yhi
0.0 4.0 zlo zhi
1.0 0.5 0.3 xy xz yz

Atoms  # atomic

1 1 0.0 0.0 0.0
2 1 2.0 1.0 0.5
