# LAMMPS data file — atomic style, orthogonal box
4 atoms
2 atom types

0.0 4.0 xlo xhi
0.0 4.0 ylo yhi
0.0 4.0 zlo zhi

Masses

1 26.98  # Al
2 63.54  # Cu

Atoms  # atomic

1 1 0.0 0.0 0.0
2 2 2.0 0.0 0.0
3 1 0.0 2.0 0.0
4 2 2.0 2.0 0.0
