## atomic style with optional image flags (nx ny nz) — 8 columns total.
4 atoms
1 atom types

0.0 4.0 xlo xhi
0.0 4.0 ylo yhi
0.0 4.0 zlo zhi

Atoms  # atomic

1 1 0.0 0.0 0.0  0  0  0
2 1 2.0 0.0 0.0  1  0  0
3 1 0.0 2.0 0.0  0 -1  0
4 1 2.0 2.0 0.0  0  0  2
