ITEM: TIMESTEP
0
ITEM: NUMBER OF ATOMS
2
ITEM: BOX BOUNDS xy xz yz pp pp pp
0.0 5.5 1.0
0.0 4.3 0.5
0.0 4.0 0.3
ITEM: ATOMS id type x y z
1 1 0.0 0.0 0.0
2 1 2.0 1.0 0.5
