ITEM: TIMESTEP
100
ITEM: NUMBER OF ATOMS
4
ITEM: BOX BOUNDS pp pp pp
0.0 4.0
0.0 4.0
0.0 4.0
ITEM: ATOMS id type x y z
1 1 0.5 0.5 0.5
2 2 1.5 0.5 0.5
3 1 0.5 1.5 0.5
4 2 1.5 1.5 0.5
