ITEM: TIMESTEP
0
ITEM: NUMBER OF ATOMS
3
ITEM: BOX BOUNDS pp pp pp
0.0 5.0
0.0 5.0
0.0 5.0
ITEM: ATOMS id type x y z
1   1     0.0     0.0     0.0
2   1     2.5     0.0     0.0
3   1     0.0     2.5     0.0
ITEM: TIMESTEP
1
ITEM: NUMBER OF ATOMS
3
ITEM: BOX BOUNDS pp pp pp
0.0 5.0
0.0 5.0
0.0 5.0
ITEM: ATOMS id type x y z
1   1     0.1     0.0     0.0
2   1     2.6     0.0     0.0
3   1     0.0     2.6     0.0
