ITEM: TIMESTEP
0
ITEM: NUMBER OF ATOMS
8
ITEM: BOX BOUNDS pp pp pp
0.0 10.0
0.0 10.0
0.0 10.0
ITEM: ATOMS id type x y z vx vy vz
1 1 0.0 0.0 0.0 0.1 0.0 0.0
2 1 5.0 0.0 0.0 0.0 0.1 0.0
3 1 0.0 5.0 0.0 0.0 0.0 0.1
4 1 5.0 5.0 0.0 -0.1 0.0 0.0
5 2 0.0 0.0 5.0 0.0 -0.1 0.0
6 2 5.0 0.0 5.0 0.0 0.0 -0.1
7 2 0.0 5.0 5.0 0.05 0.05 0.0
8 2 5.0 5.0 5.0 0.0 0.05 0.05
ITEM: TIMESTEP
100
ITEM: NUMBER OF ATOMS
8
ITEM: BOX BOUNDS pp pp pp
0.0 10.0
0.0 10.0
0.0 10.0
ITEM: ATOMS id type x y z vx vy vz
1 1 0.1 0.0 0.0 0.1 0.0 0.0
2 1 5.1 0.0 0.0 0.0 0.1 0.0
3 1 0.0 5.1 0.0 0.0 0.0 0.1
4 1 5.1 5.0 0.0 -0.1 0.0 0.0
5 2 0.0 0.0 5.1 0.0 -0.1 0.0
6 2 5.0 0.0 5.1 0.0 0.0 -0.1
7 2 0.0 5.0 5.1 0.05 0.05 0.0
8 2 5.0 5.0 5.1 0.0 0.05 0.05
ITEM: TIMESTEP
200
ITEM: NUMBER OF ATOMS
8
ITEM: BOX BOUNDS pp pp pp
0.0 10.0
0.0 10.0
0.0 10.0
ITEM: ATOMS id type x y z vx vy vz
1 1 0.2 0.0 0.0 0.1 0.0 0.0
2 1 5.2 0.0 0.0 0.0 0.1 0.0
3 1 0.0 5.2 0.0 0.0 0.0 0.1
4 1 5.2 5.0 0.0 -0.1 0.0 0.0
5 2 0.0 0.0 5.2 0.0 -0.1 0.0
6 2 5.0 0.0 5.2 0.0 0.0 -0.1
7 2 0.0 5.0 5.2 0.05 0.05 0.0
8 2 5.0 5.0 5.2 0.0 0.05 0.05
ITEM: TIMESTEP
300
ITEM: NUMBER OF ATOMS
8
ITEM: BOX BOUNDS pp pp pp
0.0 10.0
0.0 10.0
0.0 10.0
ITEM: ATOMS id type x y z vx vy vz
1 1 0.3 0.0 0.0 0.1 0.0 0.0
2 1 5.3 0.0 0.0 0.0 0.1 0.0
3 1 0.0 5.3 0.0 0.0 0.0 0.1
4 1 5.3 5.0 0.0 -0.1 0.0 0.0
5 2 0.0 0.0 5.3 0.0 -0.1 0.0
6 2 5.0 0.0 5.3 0.0 0.0 -0.1
7 2 0.0 5.0 5.3 0.05 0.05 0.0
8 2 5.0 5.0 5.3 0.0 0.05 0.05
ITEM: TIMESTEP
400
ITEM: NUMBER OF ATOMS
8
ITEM: BOX BOUNDS pp pp pp
0.0 10.0
0.0 10.0
0.0 10.0
ITEM: ATOMS id type x y z vx vy vz
1 1 0.4 0.0 0.0 0.1 0.0 0.0
2 1 5.4 0.0 0.0 0.0 0.1 0.0
3 1 0.0 5.4 0.0 0.0 0.0 0.1
4 1 5.4 5.0 0.0 -0.1 0.0 0.0
5 2 0.0 0.0 5.4 0.0 -0.1 0.0
6 2 5.0 0.0 5.4 0.0 0.0 -0.1
7 2 0.0 5.0 5.4 0.05 0.05 0.0
8 2 5.0 5.0 5.4 0.0 0.05 0.05
