ITEM: TIMESTEP
0
ITEM: NUMBER OF ATOMS
3
ITEM: BOX BOUNDS pp pp pp
0.0 4.0
0.0 4.0
0.0 4.0
ITEM: ATOMS id type x y z xs ys zs xu yu zu
1 1 0.5 0.5 0.5 0.125 0.125 0.125 0.5  0.5 0.5
2 1 2.0 0.5 0.5 0.500 0.125 0.125 6.0  0.5 0.5
3 2 0.5 2.0 0.5 0.125 0.500 0.125 -3.5 2.0 0.5
