ITEM: TIMESTEP
0
ITEM: NUMBER OF ATOMS
3
ITEM: BOX BOUNDS pp pp pp
0.0 4.0
0.0 4.0
0.0 4.0
ITEM: ATOMS id type x y z ix iy iz
1 1 0.5 0.5 0.5  0  0  0
2 1 2.0 0.5 0.5  1  0  0
3 1 0.5 2.0 0.5 -1  0  0
