ITEM: TIMESTEP
0
ITEM: NUMBER OF ATOMS
4
ITEM: BOX BOUNDS pp pp pp
1.0 5.0
2.0 6.0
3.0 7.0
ITEM: ATOMS id type xs ys zs
1 1 0.0  0.0  0.0
2 2 0.25 0.5  0.5
3 1 0.5  0.25 0.75
4 2 0.75 0.75 0.25
