ITEM: TIMESTEP
0
ITEM: NUMBER OF ATOMS
3
ITEM: BOX BOUNDS pp pp pp
0.0 4.0
0.0 4.0
0.0 4.0
ITEM: ATOMS id type xu yu zu
1 1  0.5  0.5  0.5
2 1  6.0  0.5  0.5
3 1 -1.5  0.5  0.5
