384
Lattice="15.3644500000 0.0000000000 0.0000000000 0.0000000000 15.3644500000 0.0000000000 0.0000000000 0.0000000000 15.3644500000" pbc="T T T" Properties=species:S:1:pos:R:3:force:R:3:bec:R:9:IndexMapping:I:1 virial="-7.7723770000000005 2.624553 -5.002102 2.624553 -8.935502 4.64245 -5.002102 4.64245 2.640604" name="train-k8" energy=-27.39901
H 2.3558500000 9.2812200000 13.5472800000 1.7009660000 0.3765680000 -1.1146650000 0.9740300000 0.1420900000 -0.3820000000 0.1384500000 0.2701200000 -0.0884200000 -0.4084800000 -0.0902200000 0.5559900000 191
H 8.8848600000 10.6583800000 3.8263900000 -0.7356720000 0.2004910000 0.1947870000 0.4168100000 -0.2263900000 -0.0588300000 -0.2288000000 0.8270600000 0.1832700000 -0.0453300000 0.1763800000 0.3324800000 261
H 12.1483800000 7.6482100000 14.2068800000 -0.6193030000 -0.2631510000 -0.2235900000 0.3844300000 -0.0136300000 -0.1280700000 -0.0390400000 0.3891400000 0.0606500000 -0.1492600000 0.0263500000 0.4771900000 260
H 7.9743800000 14.7773800000 6.2224800000 -0.1678790000 0.1855510000 0.0372480000 0.3411100000 0.1282600000 -0.1150100000 0.1548500000 0.5530400000 -0.2551400000 -0.1248100000 -0.2409100000 0.6437900000 259
H 0.4703000000 13.6155800000 6.6357200000 0.4219690000 -0.3758520000 0.3691670000 0.2933600000 0.0293900000 0.1451500000 0.0148800000 0.3625800000 -0.0818600000 0.1441900000 -0.0592700000 0.7021300000 258
H 7.8904300000 11.0597800000 4.9122200000 -0.8710740000 -0.1796880000 1.9896250000 0.4649500000 -0.0260400000 -0.2573000000 -0.0401500000 0.2255800000 0.0642600000 -0.2759700000 0.0596100000 0.8004200000 257
H 10.5773800000 7.4405400000 14.5149800000 -0.5125560000 0.2053440000 -0.5987200000 0.9989700000 -0.0412200000 0.0191700000 0.0394900000 0.3707000000 0.0278700000 0.0755700000 0.0279800000 0.2221800000 256
H 15.0142800000 4.5865200000 10.1136800000 0.6649400000 1.1972230000 0.1154290000 0.3239800000 0.0973600000 0.0245400000 0.1295300000 0.8367500000 0.0648600000 0.0308900000 0.0597400000 0.3187800000 255
H 14.0296800000 4.3003300000 7.1383700000 -0.6419260000 -1.0807550000 0.4664310000 0.2985700000 0.0946700000 -0.0055000000 0.1062600000 0.6821700000 -0.0689100000 -0.0138800000 -0.0567000000 0.3654700000 254
H 13.9175800000 13.2850800000 12.6898800000 -1.1734090000 0.0201650000 -0.9549190000 0.7369500000 -0.0619900000 0.0312800000 -0.0426100000 0.3504300000 -0.0465100000 0.0637700000 -0.0701200000 0.2647300000 253
H 4.1624300000 5.1399000000 11.3232800000 0.5350780000 -0.5722840000 -1.3356710000 0.4207700000 0.0170800000 -0.3053500000 0.0072600000 0.2014300000 0.0726200000 -0.3055000000 0.0917800000 1.0547800000 262
H 12.2654800000 7.4485100000 1.2165300000 0.0038290000 0.0530920000 -0.0095800000 0.4657500000 -0.0139500000 0.2624200000 -0.0154700000 0.3193500000 0.0650300000 0.2752100000 0.0872200000 0.6616100000 252
H 12.7551800000 3.5204100000 7.6303400000 0.1503050000 -0.0115950000 0.0864270000 0.7583100000 0.1148000000 -0.1367900000 0.1248100000 0.2615600000 -0.0084600000 -0.1653000000 -0.0039900000 0.3849300000 250
H 12.4978800000 13.8291800000 12.9808800000 0.2696610000 -0.4381200000 -0.6262870000 0.4594100000 -0.2035400000 -0.3500900000 -0.2151300000 0.4946100000 0.2496900000 -0.3446600000 0.2327900000 0.7007000000 249
H 7.0090100000 10.7717800000 7.2367600000 0.5200940000 0.5398600000 -0.5674440000 0.3520200000 -0.1712000000 0.1997000000 -0.1823000000 0.6453500000 -0.4028900000 0.2088800000 -0.4011900000 0.7203800000 248
H 4.8499600000 5.2204100000 0.8787400000 0.5948280000 -0.5350310000 -0.1913470000 0.9581000000 -0.0756000000 -0.0776000000 -0.0264200000 0.2869100000 -0.0277800000 -0.0429800000 -0.0325600000 0.3306800000 247
H 13.0646800000 11.1866800000 3.9552000000 0.0704160000 -0.7106540000 0.3648170000 0.4339700000 -0.2972700000 0.0361800000 -0.3096000000 0.8563100000 -0.1256100000 0.0316400000 -0.1027300000 0.3504300000 246
H 0.6213000000 8.6245000000 15.1891800000 0.4559560000 -0.0356950000 -0.4334210000 0.1938200000 -0.0203700000 0.0622900000 -0.0393400000 0.4394800000 -0.1232200000 0.0884800000 -0.1418400000 0.7604700000 245
H 8.9217400000 4.7625300000 12.8451800000 0.1952830000 0.2451130000 0.3447630000 0.3939400000 0.0002200000 0.2002100000 0.0166000000 0.2874900000 -0.0187800000 0.2627900000 -0.0479800000 0.8612900000 244
H 3.7478600000 6.2674000000 1.0788700000 0.1309430000 -1.8101470000 -0.1784830000 0.2836200000 -0.1314600000 -0.0060300000 -0.1650800000 1.4787000000 0.2623500000 -0.0154100000 0.2525600000 0.3126900000 243
H 14.0562800000 10.7999800000 5.0147000000 0.3605860000 -0.5456060000 0.5573380000 0.4622700000 0.0986300000 0.3551700000 0.1210100000 0.3159100000 0.1928300000 0.4496100000 0.2208300000 1.1153300000 242
H 0.7478800000 5.6975100000 9.7253800000 0.2112600000 -0.2393060000 0.0817960000 0.9095600000 0.1849100000 -0.3523400000 0.1723200000 0.2913800000 -0.1305000000 -0.3521400000 -0.1350200000 0.4551100000 251
H 0.1694600000 9.3799400000 13.8979800000 -0.1074840000 0.1992760000 -0.2962570000 0.3272800000 -0.1364500000 0.1758500000 -0.1067700000 0.4671000000 -0.0516200000 0.1591500000 -0.0522900000 0.5141700000 241
H 15.2862800000 12.7410800000 10.0303800000 0.0419050000 0.7330750000 -0.0492180000 0.4569000000 0.2008000000 0.0092200000 0.1558300000 0.3911900000 0.0458700000 -0.0181100000 0.0925800000 0.3941600000 263
H 11.1302800000 7.9991100000 5.8002800000 0.7720190000 0.2025320000 -0.6744230000 0.8215100000 -0.0503800000 -0.2859100000 -0.0518700000 0.2461200000 0.0038600000 -0.2862100000 0.0119500000 0.4827700000 265
H 12.8757800000 13.3395800000 9.1031300000 -0.9140100000 0.6876250000 -0.5528930000 0.8033200000 -0.0533200000 0.1083400000 -0.1008200000 0.2537900000 0.0097600000 0.0767400000 0.0378400000 0.3533500000 285
H 9.0543500000 4.5955200000 10.2092800000 -0.5673520000 0.8771300000 0.7279750000 0.3851900000 0.0357500000 -0.1083200000 0.0483300000 0.3132000000 0.0302600000 -0.0587300000 0.0398900000 0.9254000000 284
H 5.5700000000 2.8186200000 1.5400300000 0.2964710000 -0.8021030000 -0.6440480000 0.2773600000 -0.0772600000 -0.1209300000 -0.0432700000 0.5890800000 0.3463600000 -0.0835100000 0.3205400000 0.8016900000 283
H 11.6474800000 13.2858800000 4.0260200000 0.3881590000 -0.5227160000 -0.2064720000 1.0711800000 -0.1293700000 -0.1319100000 -0.2368500000 0.2731900000 -0.0237100000 -0.1269600000 -0.0316800000 0.3258800000 282
H 11.5116800000 12.7778800000 8.6854800000 -0.5345360000 -0.5553190000 0.0827470000 0.4839000000 0.0571700000 -0.0287200000 0.0707000000 0.2273900000 0.0089900000 -0.0143200000 0.0209400000 0.3792300000 281
H 8.2792700000 5.0435200000 8.7970100000 0.3160080000 0.8308140000 0.8460860000 0.3761700000 0.0465900000 0.0837900000 0.0496700000 0.4653900000 -0.1866500000 0.0767700000 -0.2145400000 0.5535400000 280
H 12.0041800000 4.3965000000 11.6941800000 -0.1565800000 -0.4653420000 -0.1787260000 0.3490000000 0.1076500000 0.1303200000 0.1130800000 0.5073800000 0.1226100000 0.1061400000 0.1279900000 0.4113000000 279
H 13.3870800000 8.4304300000 1.7300600000 -0.6221720000 -0.9108340000 0.3783000000 0.6532300000 0.4403400000 -0.0242100000 0.4640800000 0.8255600000 0.0134200000 -0.0125800000 0.0201200000 0.2329800000 278
H 11.9488800000 8.5209400000 12.0315800000 0.5630270000 -0.8214400000 -0.3361330000 0.6373300000 -0.4407500000 0.0360200000 -0.4619900000 0.7132500000 0.0014400000 0.0416500000 -0.0100500000 0.3368400000 277
H 13.3252800000 2.9762500000 4.0681400000 0.0757010000 -0.1886480000 0.9017220000 0.4289100000 -0.0447600000 -0.0032200000 -0.0336200000 0.3968800000 -0.0365300000 -0.0028000000 -0.0207600000 0.3613300000 264
H 0.7273800000 1.1250200000 4.4239900000 0.7440770000 -0.5543910000 -0.1074630000 0.5465500000 0.0709000000 -0.2724700000 0.1015000000 0.2941600000 -0.0651700000 -0.3200100000 -0.0425600000 0.7204800000 276
H 6.0554500000 5.4885800000 3.4791000000 0.4102990000 0.9306030000 0.5780540000 0.3226000000 0.2249300000 0.0272500000 0.2260800000 0.8591300000 0.1708000000 0.0170300000 0.1656700000 0.3846500000 274
H 11.3339800000 9.9227800000 11.6963800000 0.2415630000 1.3891860000 -0.8272840000 0.2432200000 0.0606600000 0.0502100000 0.0582200000 1.0110700000 -0.2590700000 0.0282800000 -0.3353800000 0.4600800000 273
H 14.8783800000 1.3833200000 5.1456400000 -1.1597010000 0.3825860000 0.4596770000 0.8012200000 -0.3475800000 0.0756500000 -0.3549900000 0.4644400000 -0.0401300000 0.0854500000 -0.0429800000 0.3089200000 272
H 10.8049800000 2.2479700000 8.0092800000 0.0013930000 -0.3759980000 -0.3958090000 0.2524800000 0.0740500000 0.0104700000 -0.0110500000 0.9142600000 0.2408800000 -0.0105400000 0.2486400000 0.4252300000 271
H 9.9853800000 14.4260800000 2.8610500000 -0.0141990000 -0.2342530000 -0.3119620000 0.2675200000 -0.0101100000 -0.0732300000 -0.0133600000 0.5380400000 -0.5021700000 -0.0753700000 -0.4254500000 0.9668100000 270
H 9.8943800000 8.8587700000 5.4135700000 0.8102590000 -1.2080690000 0.5328050000 0.3271600000 -0.0362000000 0.1189800000 -0.0369000000 0.3300000000 0.0396700000 0.1371600000 -0.0053900000 0.6661400000 269
H 13.2520800000 2.5955300000 5.5773400000 -0.2573320000 0.7489790000 0.9913400000 0.3864900000 0.0101800000 0.0411500000 -0.0106900000 0.3065700000 0.1319700000 0.0267100000 0.1443500000 0.7693100000 268
H 10.0424800000 3.5781100000 8.3625700000 -0.7374370000 0.3328740000 0.3153490000 0.6254500000 -0.3355600000 -0.1512700000 -0.2933700000 0.5126900000 0.1260600000 -0.1626400000 0.1302600000 0.4361000000 267
H 9.6144800000 11.6010800000 8.7465700000 -0.4156770000 0.8087090000 0.3970210000 0.4276900000 -0.0735000000 -0.1789100000 -0.0784700000 0.4534300000 0.2458500000 -0.1807100000 0.2365500000 0.6642600000 266
H 12.8362800000 4.4905300000 12.9754800000 -0.4126630000 -0.0484320000 0.5884410000 0.3280200000 -0.0485800000 -0.0939200000 -0.0464600000 0.3421400000 -0.0931300000 -0.0752000000 -0.0613200000 0.8850700000 275
H 13.1964800000 13.3711800000 4.0541700000 1.9204080000 1.0323210000 0.6901660000 0.7490400000 0.1148000000 0.1638200000 0.1250800000 0.3409100000 -0.0385200000 0.1999000000 -0.0150400000 0.3096600000 286
H 8.0078600000 5.7027100000 11.9983800000 0.2672110000 0.1296600000 0.0564420000 0.3608700000 -0.0411400000 -0.0096700000 -0.0631600000 0.5620300000 -0.0536200000 -0.0060700000 -0.0424600000 0.3078900000 240
H 8.3187400000 7.9044900000 13.5616800000 -0.0150200000 -0.1288100000 0.4577070000 0.4617600000 0.0127500000 0.3820100000 -0.0039800000 0.2760200000 -0.1029000000 0.3747700000 -0.0799500000 1.0320300000 238
H 9.4664800000 14.1320800000 4.7679600000 -0.8028300000 0.6268360000 0.9554950000 0.3770200000 -0.3078000000 -0.2426600000 -0.2727800000 0.7049300000 0.3317200000 -0.2246700000 0.3756100000 0.6632300000 213
H 1.2167700000 5.6173600000 14.6088800000 0.0085200000 0.2725460000 -0.3950480000 0.2921400000 -0.0689900000 0.0857900000 -0.0793800000 0.3233700000 -0.0197500000 0.0985500000 -0.0197500000 0.6405100000 212
H 5.2976000000 9.5039700000 10.7498800000 0.1972490000 -0.0195670000 0.2448150000 0.4371600000 0.0896000000 0.0083800000 0.1003100000 0.4778600000 0.0279100000 0.0117500000 0.0099600000 0.3157600000 211
H 3.1392200000 9.8432600000 8.5879400000 -0.7033600000 -0.1084980000 0.3480770000 0.7238400000 0.3022100000 -0.1380500000 0.2948400000 0.5704500000 -0.1236900000 -0.1451500000 -0.1399500000 0.2633700000 210
H 9.3162300000 12.7885800000 3.9646100000 -0.6255720000 -0.4582100000 0.3729690000 0.4698700000 0.3739800000 0.0305200000 0.3512700000 0.8111300000 -0.0371300000 0.0042900000 -0.0467600000 0.3067300000 209
H 2.3399500000 5.0764400000 0.2058300000 -0.5220350000 -0.2247210000 -0.5474450000 0.9367600000 -0.0244500000 0.2811000000 0.0547100000 0.2548400000 0.0647100000 0.2929100000 0.0417400000 0.4556900000 208
H 2.5350400000 1.7761200000 7.3245000000 0.3821750000 -0.1127480000 0.5127700000 0.4329600000 -0.1036100000 0.1244800000 -0.0961200000 0.2787700000 -0.0277200000 0.1623200000 -0.0315200000 0.5452700000 207
H 6.3165000000 2.9470200000 8.9222100000 -0.7663950000 0.2362640000 0.9579680000 0.5851900000 0.0170900000 -0.3826600000 -0.0202600000 0.2616500000 0.0424900000 -0.3636300000 -0.0149600000 0.7531900000 206
H 11.7240800000 6.7953300000 9.1771900000 -0.4212180000 -0.2277250000 0.2199010000 1.0453300000 0.4241800000 0.0095900000 0.3945100000 0.4756100000 -0.0515200000 0.0131900000 -0.0362100000 0.2738400000 205
H 4.0686000000 10.5715800000 7.5445600000 -0.2647160000 -0.3276830000 1.3367840000 0.3044400000 0.0007200000 -0.1901000000 0.0288900000 0.3134200000 -0.3403600000 -0.2081800000 -0.2307500000 1.3998200000 214
H 15.0980800000 11.5264800000 12.7279800000 -0.5793210000 -0.5601400000 0.1679410000 0.4162600000 0.1943200000 0.0831900000 0.2254700000 0.7257800000 -0.0173500000 0.0826900000 -0.0145500000 0.3268800000 204
H 4.9460200000 2.3094700000 9.4472400000 0.8983690000 0.7617460000 0.2907230000 0.8391800000 0.5425400000 0.2869800000 0.5565900000 0.7986800000 0.2961500000 0.3069700000 0.3219800000 0.3720900000 202
H 10.6432800000 5.6578400000 8.8737000000 -0.2640860000 -0.8695010000 -0.8427880000 0.4113300000 0.1020500000 0.0563200000 0.1118000000 0.4325100000 -0.0817100000 0.0615300000 -0.0844300000 0.2528500000 201
H 13.8216800000 10.5401800000 13.1211800000 0.8152260000 0.7107530000 -0.2912590000 0.9688000000 0.1282800000 -0.4200500000 0.1292700000 0.2838200000 -0.1335600000 -0.3632900000 -0.1110900000 0.5965100000 200
H 11.5976800000 4.8267200000 14.8819800000 -0.4609960000 0.5454060000 0.1398590000 0.6965100000 -0.0360600000 0.0162800000 -0.0176600000 0.3584500000 -0.0625600000 -0.0110000000 -0.0476400000 0.2870200000 199
H 5.7383600000 5.5639500000 5.7733100000 0.7975670000 0.7914850000 -1.7646770000 0.3232000000 0.0114600000 -0.0985100000 0.0049800000 0.3401400000 -0.0672500000 -0.1148100000 -0.0952500000 0.7057800000 198
H 3.3805200000 12.5347800000 3.5966700000 0.2046530000 0.4838230000 -0.1651390000 0.7647700000 0.2254600000 0.0697200000 0.2455300000 0.3871800000 -0.0123100000 0.1110100000 0.0127100000 0.3283200000 197
H 15.3341800000 11.6392800000 6.6756600000 0.9289700000 1.0556700000 0.3566870000 0.4444000000 0.1553100000 0.0306700000 0.1748500000 0.5536000000 0.0352000000 0.0441000000 0.0415900000 0.2963400000 196
H 13.1555800000 4.7023400000 15.2322800000 -0.7341550000 -0.3217940000 0.0636060000 0.5296900000 -0.1060000000 0.1729700000 -0.1555400000 0.3004800000 -0.1174500000 0.1816200000 -0.1102900000 0.4738000000 195
H 5.8971100000 11.4107800000 6.3711600000 1.2361880000 0.1032410000 -0.0897410000 0.8671400000 0.1257200000 0.1438800000 0.1501500000 0.3068800000 0.0240900000 0.1298100000 0.0263600000 0.2987800000 194
H 1.7371700000 1.5838300000 6.0197900000 -0.4117550000 0.1269030000 0.0748330000 0.8008800000 0.2170600000 0.3146200000 0.2563200000 0.3541300000 0.1890800000 0.3257100000 0.1702100000 0.4808500000 203
H 13.3865800000 0.1182400000 11.0888800000 0.4892300000 -0.4268240000 0.2269810000 0.2888300000 -0.0136600000 -0.0044400000 -0.0804900000 0.4513400000 -0.1049300000 -0.0238200000 -0.0968700000 0.3353900000 239
H 4.9156200000 8.1597800000 10.1223800000 0.3298890000 0.4729310000 1.4465580000 0.2750100000 0.0288000000 0.0177000000 0.0360500000 0.3813900000 0.0820600000 0.0168300000 0.1698800000 0.9069900000 215
H 6.8518100000 10.7800800000 13.0363800000 0.3372140000 -0.0550740000 -1.4651480000 0.2188300000 -0.0065200000 0.0269900000 -0.0170600000 0.4491700000 0.0025300000 0.0346800000 -0.0222600000 0.7293800000 217
H 4.5557400000 3.8785400000 3.3440300000 -0.6408910000 -0.0771590000 -0.1195670000 0.6626400000 -0.0271200000 0.1091600000 -0.0324200000 0.3308300000 -0.0492100000 0.1143700000 -0.0355600000 0.3570300000 237
H 0.0888300000 4.2984000000 0.7871700000 -1.3098260000 -0.5914190000 0.5124320000 0.7981200000 0.3436200000 -0.2802700000 0.3169500000 0.4037300000 -0.1575000000 -0.3017600000 -0.1890300000 0.4934900000 236
H 12.6585800000 1.3895400000 11.0240800000 -0.9576870000 1.0233230000 0.2332600000 0.8683200000 -0.3972100000 0.0884100000 -0.3823000000 0.4927500000 -0.0835900000 0.0873700000 -0.0755800000 0.3079200000 235
H 8.3085800000 8.2016900000 15.1116800000 -0.0852660000 -0.1075950000 0.1171210000 0.3869200000 0.0398800000 -0.1572200000 0.0207700000 0.2806200000 0.0918100000 -0.1384700000 0.0612800000 0.5807400000 234
H 5.8326700000 3.1706500000 3.6824400000 0.5069150000 -0.6263050000 0.7766350000 0.4698800000 -0.0716700000 -0.0201600000 -0.1049200000 0.4406600000 -0.0790700000 -0.0053000000 -0.0766000000 0.4441700000 233
H 0.3467600000 8.7869100000 1.7937600000 -0.3284610000 0.1364370000 0.2173140000 0.8226000000 -0.5482700000 -0.0193900000 -0.4144900000 0.7049300000 0.0410500000 -0.0020100000 0.0676900000 0.3038600000 232
H 2.2979200000 5.6300600000 8.0927900000 1.0451050000 -0.3333730000 0.1005670000 0.3430100000 -0.0891700000 -0.2046000000 -0.0704900000 0.3838600000 0.2131000000 -0.1766200000 0.1907300000 0.8302600000 231
H 2.2583400000 1.9344000000 10.8969800000 -0.1782120000 -0.5490310000 -0.1724610000 0.3273900000 0.0661000000 0.0980200000 0.0955200000 0.3012500000 0.2199700000 0.1302500000 0.1900400000 0.7452400000 230
H 4.5996700000 13.8878800000 7.3180600000 0.3374280000 0.5212050000 0.7321080000 0.5125900000 0.0732300000 0.2265800000 0.0867900000 0.3387100000 0.1135600000 0.2078300000 0.0995300000 0.6313100000 229
H 14.8242800000 2.9105800000 1.2306800000 -0.0320500000 -0.0291370000 -0.4531160000 0.2686500000 -0.2518400000 0.0471700000 -0.2362000000 1.6138000000 -0.0921500000 0.0573400000 -0.1188900000 0.2341100000 216
H 1.4893400000 14.1419800000 0.8439700000 -0.5464280000 0.3219160000 -1.1403110000 0.6782900000 0.0567300000 0.1694700000 0.1068400000 0.3648800000 0.0145100000 0.1767600000 -0.0217200000 0.3230800000 228
H 1.0202900000 1.9854600000 9.9430800000 0.8982570000 -1.1003890000 0.0879670000 1.2443500000 -0.5307400000 0.2841800000 -0.5586000000 0.5021000000 -0.1623500000 0.1763400000 -0.1125800000 0.2918800000 226
H 4.7593100000 13.6865800000 8.8621100000 0.0837710000 0.0723790000 0.1727260000 0.3298900000 0.0483300000 -0.1597700000 0.0729400000 0.5180500000 -0.3340500000 -0.1654400000 -0.3077700000 0.7046200000 225
H 0.4250500000 15.1939800000 0.4310900000 0.0996110000 -0.4860270000 -0.3941450000 0.4037400000 -0.2247600000 -0.0857500000 -0.2970100000 0.8438900000 0.1952900000 -0.0951100000 0.1812000000 0.3154100000 224
H 7.2331500000 4.8464700000 1.1752300000 0.3437450000 -0.5169800000 0.2971590000 0.3105900000 -0.0080500000 -0.1074700000 0.0289400000 0.4247700000 0.0451600000 -0.1032300000 0.0257400000 0.3654700000 223
H 6.8279800000 8.9343700000 8.3809900000 0.5006880000 -0.2217590000 0.5190190000 0.7400700000 0.2318700000 0.0234200000 0.1892100000 0.4069900000 0.0875300000 -0.0101300000 0.0702900000 0.2919200000 222
H 7.2809800000 10.5934800000 14.4850800000 0.6066890000 -0.2045190000 0.1315310000 0.2162400000 -0.0062200000 -0.0486200000 0.0059000000 0.4569300000 0.0086200000 -0.0470900000 0.0257200000 0.3356400000 221
H 4.8099800000 4.3380900000 9.9283800000 -0.4089270000 1.2247940000 1.4809140000 0.5504000000 -0.4699300000 -0.1765200000 -0.4326800000 0.9248500000 0.2979900000 -0.1650700000 0.3000300000 0.3331500000 220
H 6.7903000000 6.2573900000 0.9968000000 0.1380740000 1.0639110000 0.3102930000 0.3384700000 0.0406400000 -0.0339300000 0.0332200000 0.5393700000 0.0322400000 -0.0305600000 0.0339500000 0.4342200000 219
H 8.1953600000 9.4270400000 9.1407200000 -0.4929060000 -0.6035970000 -0.3164740000 0.6320200000 -0.1789300000 0.2037700000 -0.2162600000 0.3924400000 -0.0961500000 0.2425100000 -0.0618500000 0.5322400000 218
H 8.7607000000 12.9125800000 9.0647000000 0.5981570000 -0.9002150000 0.2563710000 0.5410900000 -0.1960800000 0.1630100000 -0.1789800000 0.5276600000 -0.1594200000 0.2019700000 -0.1970500000 0.4264000000 227
H 4.4426800000 13.6511800000 4.0755800000 0.4476420000 -0.1846620000 -0.2347810000 0.4637000000 0.3518700000 0.2380700000 0.3597800000 0.7055400000 0.2436500000 0.1855500000 0.1815100000 0.5025400000 193
H 5.1163200000 2.2251300000 0.1684500000 -1.0645110000 -0.2745950000 -1.5022430000 0.3616900000 0.1071100000 0.2543100000 0.1047500000 0.3230500000 0.1291800000 0.2511600000 0.1406300000 0.7944600000 287
H 2.8909100000 10.8179800000 0.4910900000 -0.1611860000 0.1281470000 0.0893000000 0.8577800000 -0.1860000000 -0.1002800000 -0.1834100000 0.3741800000 -0.0137400000 -0.1264600000 -0.0027700000 0.2729600000 289
H 6.6265800000 8.1094900000 11.6335800000 0.7049560000 0.1686230000 0.4927960000 1.0147700000 -0.1722300000 0.2536600000 -0.2642100000 0.3982700000 -0.1109700000 0.3712100000 -0.1152900000 0.3491300000 357
H 8.6722000000 14.9314800000 13.7797800000 -0.0022810000 0.5943760000 0.0245160000 0.5022900000 0.1752000000 -0.0224000000 0.1809200000 0.4673900000 -0.0970900000 -0.0164400000 -0.0911900000 0.3021200000 356
H 12.3561800000 7.8666300000 3.7913900000 -0.2726490000 -0.6477670000 -1.6381580000 0.3303200000 -0.0441300000 -0.0743800000 -0.0375900000 0.3163200000 0.0846100000 -0.0426800000 0.1554200000 0.6931600000 355
H 4.6059500000 8.5739400000 2.9074000000 -0.4316790000 -0.8749730000 0.1974860000 0.5142500000 0.1017000000 0.1863100000 0.1506300000 0.3703100000 0.2117600000 0.2414800000 0.1717400000 0.5487100000 354
H 13.5193800000 6.6303900000 6.0941200000 0.8284320000 -0.1724850000 1.1296590000 0.3918300000 -0.0813600000 0.0741200000 -0.1070600000 0.4158500000 -0.0960500000 0.1123100000 -0.0734600000 0.4019000000 353
H 9.5043600000 0.7337400000 13.2427800000 -0.0269150000 0.3963000000 -1.5202550000 0.3545200000 -0.0617500000 0.0917400000 -0.0465700000 0.3820900000 -0.3112400000 0.0504500000 -0.2732800000 0.8996400000 352
H 0.2585000000 13.1921800000 8.1178400000 0.9833050000 -0.1918620000 -0.6294310000 0.6126800000 0.1962200000 -0.4719300000 0.1716400000 0.3534800000 -0.0868100000 -0.4388600000 -0.1058500000 0.9010900000 351
H 2.5256200000 13.1637800000 6.6192600000 -1.4641890000 -0.3024130000 1.3387130000 0.8761100000 0.0172700000 -0.3199700000 0.0487900000 0.2810200000 -0.0012600000 -0.2793500000 0.0238400000 0.4903400000 350
H 4.0764900000 13.9507800000 14.0872800000 -2.0522250000 -2.1665870000 -2.2683150000 0.3762900000 0.1098500000 0.0270100000 0.0723900000 0.5098200000 0.1498500000 0.0192600000 0.1656800000 0.3188300000 349
H 5.5830000000 9.5160600000 3.3907200000 0.3035920000 -0.1109260000 0.5185400000 0.3881000000 0.1387000000 -0.0674000000 0.1215500000 0.5695000000 -0.0516500000 -0.0887400000 -0.0598000000 0.3647500000 358
H 15.2199800000 14.6512800000 4.8039500000 0.1140840000 -1.0682780000 -0.1360910000 0.2588300000 0.1368500000 0.0776300000 0.1315700000 1.1812900000 0.1800300000 0.0660300000 0.1156200000 0.3152200000 348
H 3.1023300000 13.8851800000 5.4814800000 0.2568900000 0.2893460000 -0.4018930000 0.3978700000 0.0657700000 -0.0426300000 0.1037100000 0.3050800000 0.0248100000 -0.0861500000 0.0735300000 0.4076300000 346
H 4.7759200000 0.0132300000 14.1294800000 -0.8835990000 -0.0394870000 0.1658390000 0.2762400000 0.0088600000 -0.0106600000 0.0417100000 1.4328800000 -0.3095600000 -0.0275400000 -0.3362000000 0.3122400000 345
H 0.4294300000 13.2370800000 4.2165900000 -0.6813880000 0.4944990000 0.1161270000 0.4447500000 -0.2595800000 -0.1739500000 -0.2675200000 0.5364100000 0.2278500000 -0.1773800000 0.2281800000 0.4764100000 344
H 4.1527900000 8.4402300000 0.9956000000 -0.2096230000 -0.6471210000 0.2289710000 0.4030300000 0.1560500000 -0.0260000000 0.2174000000 0.6470600000 -0.1747300000 -0.0834300000 -0.1853500000 0.4358000000 343
H 6.4121300000 2.8840800000 11.0763800000 -0.2340200000 -1.0529360000 -0.0683210000 0.5228500000 -0.0450900000 0.5472600000 -0.0316600000 0.2142200000 -0.0504400000 0.5212700000 -0.0690000000 1.2666700000 342
H 8.3184500000 6.1564900000 3.5481400000 -0.8620840000 -0.5950510000 0.8019490000 0.8832400000 0.0366800000 -0.1704200000 0.0448500000 0.2850400000 -0.0040100000 -0.1171400000 -0.0101200000 0.3740100000 341
H 5.3765500000 1.8881200000 13.2850800000 -0.8434800000 -0.0050680000 0.0334410000 0.5562700000 0.1481300000 -0.2062900000 0.1559000000 0.3537200000 -0.0836900000 -0.2414100000 -0.1152900000 0.4774900000 340
H 2.7232900000 8.0465900000 1.3808000000 -0.5714560000 -0.1909540000 0.2648860000 1.0698900000 -0.0918500000 -0.1051400000 -0.0968400000 0.2651400000 0.0211100000 -0.1170700000 0.0197300000 0.3009900000 339
H 7.0851000000 3.5798900000 12.1796800000 0.2882730000 -0.9604550000 0.3165340000 0.4967800000 0.2501800000 0.0236300000 0.2628700000 0.5724500000 0.0695500000 0.0177400000 0.0150100000 0.3023400000 338
H 6.2251200000 0.7610900000 1.6500000000 0.1442590000 -0.8291140000 0.1567420000 0.4173300000 -0.1658400000 0.2036200000 -0.2077100000 0.8933700000 -0.4003700000 0.2395800000 -0.4139900000 0.4956200000 347
H 9.8079400000 5.7203200000 3.1810700000 -1.1390870000 0.5497890000 0.0667090000 0.4267100000 -0.0763500000 0.0289000000 -0.1009000000 0.4057200000 -0.0159700000 0.0280400000 -0.0228300000 0.3739500000 337
H 12.9479800000 9.0017700000 4.5495200000 0.0247010000 0.5024000000 0.3373160000 0.4463000000 0.4247200000 -0.0309400000 0.4372800000 1.1426400000 -0.0717600000 -0.0648300000 -0.1144000000 0.2473100000 359
H 2.9918700000 9.4011000000 4.1625700000 -0.3136120000 -0.0778750000 0.0058010000 0.5218500000 -0.0181500000 0.0398000000 -0.0399300000 0.3176100000 0.0315500000 -0.0068700000 0.0390900000 0.3365600000 361
H 2.6988700000 5.7420100000 12.8225800000 -0.0171070000 0.3118740000 0.4888690000 0.8381400000 -0.1655800000 0.0437000000 -0.1638600000 0.2934300000 -0.0671100000 0.0392300000 -0.0700900000 0.3605200000 381
H 1.3261200000 7.8636400000 5.7869100000 -0.4514500000 -1.2353180000 0.1462070000 0.2859700000 0.0480400000 -0.0295700000 0.0264700000 0.4412500000 -0.1022000000 -0.0288200000 -0.1055100000 0.5201000000 380
H 9.4455600000 14.5458800000 1.3599700000 1.1872140000 0.3049440000 1.2119730000 0.4678900000 0.0636400000 0.0680800000 0.0666500000 0.3909400000 0.0559400000 0.0173300000 0.0263700000 0.3808500000 379
H 8.9514000000 4.1386200000 15.0489800000 0.8250610000 1.0582390000 -0.7166100000 0.3028000000 0.2068900000 -0.0638900000 0.2600800000 0.9210600000 -0.2435100000 -0.0895700000 -0.2813000000 0.3891200000 378
H 4.2026600000 5.4459400000 13.4674800000 0.5474310000 1.1825870000 0.5826170000 0.9118900000 0.2865900000 0.1923100000 0.2811800000 0.3406700000 0.0644000000 0.1837500000 0.0523900000 0.4737600000 377
H 12.1392800000 12.0440800000 11.4398800000 -0.6087940000 -0.0343920000 -0.1148620000 0.5467200000 0.2924600000 0.2145000000 0.3262200000 0.6033800000 0.2642800000 0.2570300000 0.2963000000 0.5671300000 376
H 3.8662200000 12.4181800000 11.0067800000 -0.6025290000 0.3438350000 1.7051620000 0.3619900000 -0.1092600000 -0.2114500000 -0.0766100000 0.2572400000 -0.0084200000 -0.2003500000 0.0506600000 0.9114700000 375
H 4.6090900000 8.9062300000 8.2815700000 0.7385910000 -0.9434020000 0.0998500000 0.4379300000 -0.3711600000 -0.0712200000 -0.3750400000 1.0537300000 0.0373700000 -0.0556000000 -0.0155800000 0.2927100000 374
H 13.2541800000 6.0827900000 2.6468000000 0.1202620000 -0.2636790000 -0.3741430000 0.3716500000 -0.1711700000 0.0787900000 -0.1792700000 0.9333700000 -0.1730900000 0.0808600000 -0.1996300000 0.3124100000 373
H 7.9196800000 3.4383900000 7.3883900000 -0.1245510000 -0.5345600000 0.0185340000 0.3370200000 0.0941200000 -0.0666700000 0.0818900000 0.4275800000 -0.0366500000 -0.0983600000 -0.0680300000 0.4932800000 360
H 2.8659100000 4.1643500000 6.4305800000 -0.3739040000 -0.3757470000 -0.0503760000 0.2844900000 0.0759700000 -0.0101900000 0.1134700000 0.5797900000 0.0242400000 0.0105700000 0.0085000000 0.3406000000 372
H 4.7978800000 7.3326100000 7.8954800000 -0.0781540000 -0.0301050000 -0.1173510000 0.2776900000 -0.0338700000 -0.1077600000 -0.0538800000 0.4427700000 0.0354000000 -0.1128900000 0.0623600000 0.3564700000 370
H 13.8835800000 4.6489300000 2.2338200000 0.3412280000 -0.2354980000 -0.7788740000 0.5411400000 -0.3546200000 -0.3998700000 -0.3513800000 0.6859100000 0.5879200000 -0.3913200000 0.5594400000 0.8597700000 369
H 4.1881000000 4.9202700000 6.7426500000 -0.8390530000 0.6696940000 0.1836170000 1.3861800000 0.2462700000 0.0339800000 0.2000900000 0.2847000000 0.0173200000 0.0031000000 0.0167300000 0.2805200000 368
H 13.7160800000 12.1173800000 0.1667500000 -0.9089230000 0.0785100000 0.2437260000 0.8046600000 -0.0630600000 -0.1945800000 -0.1043700000 0.3249900000 0.0270400000 -0.1657700000 0.0265900000 0.4247100000 367
H 10.7872800000 11.2692800000 6.5432500000 0.8134690000 0.3233180000 -0.8688070000 0.3527200000 -0.0050200000 0.1126700000 -0.0070600000 0.3506100000 -0.0245600000 0.1158600000 -0.0330500000 0.2702000000 366
H 1.7922200000 8.9571900000 3.3247100000 0.0536540000 0.4536510000 0.8542690000 0.3838700000 0.1103100000 0.1957600000 0.0867800000 0.4181600000 0.1314800000 0.1662500000 0.1535600000 0.5866700000 365
H 7.5909000000 1.9261000000 7.8086300000 0.0120660000 1.3223640000 -0.5201260000 0.3775400000 -0.2145500000 0.0854800000 -0.1853700000 0.6661200000 -0.1845200000 0.0650200000 -0.1571700000 0.4871000000 364
H 15.1085800000 12.5022800000 0.4879700000 0.4813970000 0.4836310000 -0.1307520000 0.4504900000 0.1313100000 -0.0013200000 0.1609000000 0.5534200000 -0.0748200000 -0.0005000000 -0.0887500000 0.2785500000 363
H 10.0801800000 9.9798800000 7.0308600000 0.4411790000 0.2742160000 0.0675040000 0.3442600000 -0.0291600000 -0.0103500000 -0.0193600000 0.7891700000 0.1313300000 -0.0146900000 0.2092900000 0.3804900000 362
H 3.8912800000 11.8295800000 9.6000000000 0.5735520000 -0.0471360000 0.1763410000 0.2547300000 -0.0263600000 0.0341700000 0.0084300000 0.7203000000 0.3639700000 0.0516300000 0.3209200000 0.5653100000 371
H 5.2554200000 10.7929800000 0.1783700000 -0.2211270000 -0.1413520000 0.3880740000 0.4386700000 0.0194700000 -0.0109600000 0.0548700000 0.3118900000 0.0466000000 -0.0527200000 0.0106400000 0.4897500000 288