ITEM: TIMESTEP
20000
ITEM: NUMBER OF ATOMS
103056
ITEM: BOX BOUNDS pp pp ff
-50.0254 50.0254
-51.0572 51.0572
-30.0455 300.045
ITEM: ATOMS id type x y z
6 1 -48.739 -48.8549 3.32839
12 1 -46.0775 -48.8068 3.03629
13 1 -44.8636 -50.9633 2.97564
18 1 -43.3976 -48.8438 3.22933
24 1 -40.8732 -48.7878 3.0263
30 1 -38.2758 -48.8861 2.84936
36 1 -35.908 -49.017 3.00758
42 1 -33.3183 -48.9522 2.8098
48 1 -30.6816 -48.9533 2.66734
54 1 -28.171 -48.9838 2.92156
60 1 -25.6636 -49.0424 2.94973
66 1 -23.2258 -49.0699 2.91473
72 1 -20.6827 -48.9578 2.987
73 1 -19.4439 -51.0256 2.83624
78 1 -18.2025 -48.8598 2.66571
79 1 -16.7275 -50.8403 3.02385
84 1 -15.5817 -48.776 2.96848
90 1 -12.8122 -48.915 2.67446
85 1 -14.1143 -51.016 2.65164
96 1 -10.2875 -48.8086 2.84795
102 1 -7.9606 -49.005 2.93204
108 1 -5.28461 -48.8297 2.7397
114 1 -2.70198 -49.0796 3.16252
120 1 -0.26417 -49.0025 2.74418
241 1 -47.4517 -46.6327 3.07293
247 1 -44.8076 -46.6394 2.82983
253 1 -42.2429 -46.6714 2.9332
259 1 -39.6348 -46.6067 2.67626
265 1 -37.1222 -46.6314 3.00124
271 1 -34.5503 -46.5215 2.90166
277 1 -32.085 -46.6176 2.2936
283 1 -29.3058 -46.5818 2.77508
289 1 -26.7991 -46.831 2.72336
295 1 -24.3875 -46.6989 2.89959
301 1 -21.9169 -46.8958 2.94287
307 1 -19.4469 -46.6757 2.71766
313 1 -16.8871 -46.7497 2.75747
319 1 -14.255 -46.6568 2.91665
325 1 -11.5436 -46.6631 3.04858
331 1 -9.22876 -46.6619 2.97153
337 1 -6.69466 -46.7563 2.89692
343 1 -3.86614 -46.5362 3.16657
349 1 -1.43935 -46.7031 3.15324
240 1 -48.7377 -44.5472 3.18599
475 1 -47.3082 -42.2853 2.86886
469 1 -49.9661 -42.3248 2.84129
246 1 -46.1998 -44.4767 3.05036
481 1 -44.9012 -42.5581 3.2239
252 1 -43.391 -44.53 2.8348
258 1 -40.9881 -44.4152 2.98829
487 1 -42.4503 -42.3371 3.19872
264 1 -38.4311 -44.3409 2.90286
493 1 -39.6442 -42.0619 3.06778
270 1 -35.8151 -44.4062 3.01037
499 1 -37.1247 -42.1932 3.03532
505 1 -34.5779 -42.1798 2.80096
276 1 -33.1879 -44.5469 2.7245
511 1 -31.8525 -42.0977 2.70481
282 1 -30.6827 -44.6552 2.89503
517 1 -29.3624 -42.3164 2.98153
288 1 -28.1615 -44.5314 3.02301
294 1 -25.6398 -44.5195 2.80174
523 1 -26.905 -42.406 2.9819
300 1 -23.0655 -44.4484 3.15709
529 1 -24.4924 -42.4732 2.91812
535 1 -21.9113 -42.2111 2.9469
306 1 -20.5917 -44.3252 2.86714
541 1 -19.3516 -42.0658 2.70737
312 1 -18.139 -44.6401 2.50608
547 1 -16.8505 -42.2074 2.98501
318 1 -15.8466 -44.6242 2.93365
324 1 -13.0629 -44.5639 2.82467
553 1 -14.3204 -42.3349 3.11359
330 1 -10.6493 -44.4757 2.81597
559 1 -11.8084 -42.2226 2.9185
336 1 -7.98191 -44.4576 3.13039
565 1 -9.11444 -42.2475 3.04097
571 1 -6.60226 -42.507 3.02873
342 1 -5.25133 -44.5873 3.19439
577 1 -3.98345 -42.3462 2.83353
348 1 -2.62577 -44.5155 3.03355
583 1 -1.3921 -42.3416 2.88791
354 1 -0.228996 -44.4273 2.97468
474 1 -48.7983 -40.2784 2.62609
480 1 -46.2862 -39.9914 3.06622
486 1 -43.5794 -40.0085 3.03994
492 1 -41.1085 -40.0118 2.76846
498 1 -38.6162 -39.7138 3.04932
504 1 -35.9431 -39.9113 2.5664
510 1 -33.4326 -39.8574 2.83054
516 1 -30.7565 -39.9667 2.97502
522 1 -28.1487 -40.0847 2.92735
528 1 -25.8253 -40.0033 3.00415
534 1 -23.2198 -39.9143 2.70576
540 1 -20.6966 -40.0234 2.86953
546 1 -18.0076 -39.8347 2.88933
552 1 -15.566 -39.9738 2.90463
558 1 -12.9523 -39.932 2.99475
564 1 -10.5325 -40.0388 2.97505
570 1 -7.7144 -40.1249 2.99205
576 1 -5.18018 -39.9767 2.94238
582 1 -2.58291 -39.9694 2.85085
588 1 -0.039256 -39.9659 2.71058
708 1 -48.6424 -35.5487 2.86306
709 1 -47.4613 -37.8577 2.87812
714 1 -46.0913 -35.7957 3.18061
715 1 -44.8847 -38.0912 2.96421
720 1 -43.6705 -35.7842 3.01793
721 1 -42.3622 -37.8678 3.09922
726 1 -41.2036 -35.5232 2.98865
727 1 -39.7322 -37.5347 2.80958
732 1 -38.4882 -35.3741 2.94887
733 1 -37.1487 -37.734 2.92461
738 1 -35.9372 -35.5297 2.54463
739 1 -34.7919 -37.699 2.98075
744 1 -33.4932 -35.5555 2.70132
745 1 -32.1438 -37.7587 2.85623
750 1 -30.7951 -35.3733 2.72669
751 1 -29.4568 -37.892 2.66079
756 1 -28.1266 -35.4484 2.69329
757 1 -26.8699 -37.7225 2.8523
762 1 -25.7685 -35.5243 2.8736
763 1 -24.4255 -37.7073 2.85917
768 1 -23.1809 -35.6031 2.71239
769 1 -21.8506 -37.7572 2.81757
774 1 -20.6506 -35.5242 2.92241
775 1 -19.3351 -37.7664 2.93352
780 1 -18.084 -35.4681 2.88194
781 1 -16.6655 -37.6749 2.86031
786 1 -15.6143 -35.4587 2.97449
787 1 -14.3004 -37.8914 2.8494
792 1 -12.8573 -35.6822 3.06137
793 1 -11.7497 -37.8666 3.02088
798 1 -10.3957 -35.6182 2.88471
799 1 -9.06644 -37.9702 2.97423
804 1 -7.76073 -35.6782 3.03586
805 1 -6.40847 -37.7034 3.07584
810 1 -5.32576 -35.3864 3.01628
811 1 -3.91067 -37.7357 2.8455
816 1 -2.739 -35.5562 3.04617
817 1 -1.37223 -37.6788 2.8329
822 1 -0.0604335 -35.5857 2.66103
943 1 -47.39 -33.4622 3.09935
937 1 -49.9627 -33.2375 3.0169
949 1 -44.8685 -33.5966 3.15755
955 1 -42.4157 -33.3952 2.94375
961 1 -39.7919 -33.3681 2.77328
967 1 -37.2089 -33.2633 3.01315
973 1 -34.6848 -33.4188 2.6719
979 1 -32.1063 -33.2535 2.97502
985 1 -29.5814 -33.1798 2.84094
991 1 -26.8556 -33.3196 2.71222
997 1 -24.3205 -33.3083 2.79655
1003 1 -21.9389 -33.2693 3.07607
1009 1 -19.4174 -33.4406 2.92901
1015 1 -16.67 -33.2588 2.86473
1021 1 -14.1747 -33.504 3.03375
1027 1 -11.712 -33.4492 3.03337
1033 1 -9.12314 -33.4395 3.07761
1039 1 -6.68092 -33.364 3.06855
1045 1 -3.89824 -33.359 2.82045
1051 1 -1.44134 -33.2596 2.87028
942 1 -48.5057 -31.1648 2.99374
1177 1 -47.4053 -28.9597 3.04066
1171 1 -49.9796 -28.9348 2.80202
948 1 -45.9886 -31.2965 3.0563
1183 1 -44.9537 -29.0454 2.82495
954 1 -43.4439 -31.0734 3.01979
960 1 -41.0562 -31.2712 3.02157
1189 1 -42.5474 -28.8468 3.16153
966 1 -38.6157 -31.1093 3.06781
1195 1 -40.0055 -28.9716 2.91155
972 1 -36.012 -31.1328 2.69618
1207 1 -34.7895 -28.8713 3.21873
1201 1 -37.3056 -28.8441 3.12974
978 1 -33.4903 -31.021 2.97091
1213 1 -32.1016 -28.978 2.89572
984 1 -30.7491 -31.0829 2.6591
1219 1 -29.4018 -28.9686 2.52387
990 1 -28.2754 -31.1385 2.67039
996 1 -25.6792 -31.2171 2.78885
1225 1 -26.9349 -28.7949 2.78532
1002 1 -23.0412 -31.1131 2.7894
1231 1 -24.3615 -29.0644 2.4728
1237 1 -21.72 -28.976 2.61797
1008 1 -20.5729 -31.2638 2.80104
1243 1 -19.2966 -29.011 2.89544
1014 1 -18.1247 -31.2866 3.00523
1249 1 -16.8172 -29.0244 2.95732
1020 1 -15.4408 -31.089 2.97865
1026 1 -12.8999 -30.9661 3.07982
1255 1 -14.3186 -28.8883 2.87263
1032 1 -10.4506 -31.2159 2.88518
1261 1 -11.5912 -28.9303 2.85652
1038 1 -7.89215 -31.1443 3.02957
1273 1 -6.63429 -28.9407 2.8508
1267 1 -9.16972 -28.9388 2.9498
1044 1 -5.43814 -30.9989 2.87324
1279 1 -3.94967 -28.7576 2.9927
1050 1 -2.91446 -30.9033 2.83248
1056 1 -0.0952408 -31.0175 2.82772
1176 1 -48.7391 -26.7291 2.68947
1182 1 -46.3199 -26.6865 2.83998
1188 1 -43.7751 -26.6507 3.11513
1194 1 -40.9905 -26.6764 3.09459
1200 1 -38.4838 -26.5913 3.08042
1206 1 -36.052 -26.6693 2.95197
1212 1 -33.2623 -26.8276 2.80997
1218 1 -30.7153 -26.833 2.85147
1224 1 -28.2858 -26.7389 2.91454
1230 1 -25.8107 -26.6526 2.78304
1236 1 -23.1916 -26.7976 2.64986
1242 1 -20.6509 -26.8021 2.89921
1248 1 -18.2422 -26.8709 2.52344
1254 1 -15.5784 -26.5961 2.83826
1260 1 -13.0375 -26.679 2.82907
1266 1 -10.4769 -26.7387 2.92158
1272 1 -7.99878 -26.7157 2.77728
1278 1 -5.38318 -26.7101 2.68399
1285 1 -1.39541 -28.6424 3.30736
1284 1 -2.86449 -26.5702 2.89072
1290 1 -0.0899545 -26.5701 3.26359
1411 1 -47.5651 -24.4966 2.8705
1417 1 -44.8463 -24.3018 2.52868
1416 1 -46.1843 -22.4226 3.06901
1423 1 -42.5148 -24.4559 3.14289
1429 1 -39.9176 -24.3988 2.95395
1435 1 -37.2839 -24.4736 2.84239
1441 1 -34.7152 -24.3993 2.90447
1440 1 -36.1118 -22.3573 2.6947
1447 1 -31.9754 -24.6283 3.02406
1446 1 -33.2911 -22.3457 2.53902
1453 1 -29.5628 -24.4028 3.11319
1459 1 -27.0528 -24.4105 2.79126
1465 1 -24.4195 -24.7029 2.59591
1470 1 -23.1018 -22.373 2.80976
1471 1 -21.7245 -24.5655 2.60044
1477 1 -19.4064 -24.5676 2.84572
1476 1 -20.5103 -22.3782 2.82346
1483 1 -16.8703 -24.4188 2.88339
1489 1 -14.2478 -24.3978 2.82522
1495 1 -11.7485 -24.495 2.81402
1500 1 -10.5335 -22.4038 2.77519
1501 1 -9.06073 -24.5327 2.79917
1507 1 -6.46274 -24.3696 3.13887
1513 1 -4.02519 -24.2891 2.94536
1519 1 -1.39958 -24.3966 3.11295
1410 1 -48.9739 -22.3189 3.12127
1645 1 -47.6977 -20.2241 2.92834
1651 1 -45.0681 -20.2629 2.86222
1422 1 -43.6627 -22.2475 3.15725
1428 1 -41.1571 -22.1471 3.11262
1657 1 -42.3651 -19.9536 3.10384
1434 1 -38.6355 -22.3129 2.99238
1663 1 -39.8346 -20.0253 2.96887
1669 1 -37.2892 -20.1433 2.97491
1675 1 -34.7937 -20.2304 2.84212
1681 1 -32.1719 -20.0509 2.94204
1452 1 -30.8122 -22.1867 2.84834
1458 1 -28.2308 -22.1382 2.8146
1687 1 -29.6511 -20.1757 3.04926
1464 1 -25.6206 -22.2465 3.02388
1693 1 -26.9983 -20.0077 2.86491
1699 1 -24.3353 -20.0396 3.09556
1705 1 -21.8305 -19.9485 2.78205
1711 1 -19.3291 -19.8618 3.10315
1482 1 -18.0325 -22.1118 2.68164
1717 1 -16.8739 -19.9537 2.73078
1494 1 -12.9971 -22.2062 2.9945
1488 1 -15.5275 -22.1377 2.88758
1723 1 -14.0663 -19.8361 2.72396
1729 1 -11.6197 -19.9151 2.6885
1506 1 -7.85671 -22.1618 2.79721
1735 1 -9.08469 -19.8935 2.86709
1741 1 -6.62919 -19.9034 2.7918
1512 1 -5.465 -22.1587 2.83199
1747 1 -4.02573 -19.9971 2.99107
1524 1 -0.0453507 -22.2358 2.94827
1518 1 -2.73394 -22.1329 3.05753
1753 1 -1.40303 -20.0747 3.01062
1644 1 -48.7927 -18.0455 2.96521
1650 1 -46.3132 -18.0171 3.04159
1656 1 -43.7941 -17.886 3.17435
1662 1 -41.2705 -17.8142 3.00848
1668 1 -38.6672 -17.8563 2.97249
1674 1 -36.1582 -17.9344 3.01739
1680 1 -33.6783 -17.8698 2.66795
1686 1 -31.1413 -17.8884 3.14766
1692 1 -28.3404 -17.9621 3.00082
1698 1 -25.7989 -17.8586 2.99744
1704 1 -23.1269 -17.8328 3.10259
1710 1 -20.7228 -17.5695 2.77844
1716 1 -18.2985 -17.5766 2.79415
1722 1 -15.568 -17.8011 2.99646
1728 1 -12.8977 -17.6052 2.82262
1734 1 -10.4472 -17.6557 2.85385
1740 1 -7.85464 -17.8268 3.07759
1746 1 -5.02196 -17.8821 2.9576
1752 1 -2.61592 -17.8678 2.98027
1878 1 -48.9929 -13.3707 3.1315
1879 1 -47.4009 -15.7856 3.06514
1873 1 -49.9058 -15.6744 2.70907
1884 1 -46.3509 -13.4995 3.03723
1885 1 -44.8584 -15.7039 3.07121
1890 1 -43.7691 -13.4911 3.0938
1891 1 -42.4708 -15.4885 2.92533
1896 1 -40.9998 -13.413 3.03445
1897 1 -39.8276 -15.6452 3.06616
1902 1 -38.568 -13.4287 2.83087
1903 1 -37.367 -15.6819 3.16775
1908 1 -35.9932 -13.3543 2.81698
1909 1 -34.9321 -15.7169 3.18504
1914 1 -33.4498 -13.2987 2.93913
1915 1 -32.3588 -15.524 2.78504
1920 1 -30.9499 -13.4476 2.74247
1921 1 -29.6729 -15.7855 2.82996
1926 1 -28.1944 -13.5315 3.05774
1927 1 -27.0571 -15.6839 3.17514
1932 1 -25.7489 -13.3128 3.08191
1933 1 -24.4611 -15.6554 3.04535
1938 1 -23.2185 -13.301 2.81641
1939 1 -21.8944 -15.4305 2.89214
1944 1 -20.5565 -13.2441 2.84181
1945 1 -19.4471 -15.4024 2.97063
1950 1 -18.1429 -13.1546 3.03673
1951 1 -16.8292 -15.5459 3.09247
1956 1 -15.497 -13.4127 2.66289
1957 1 -14.1008 -15.5286 2.84338
1962 1 -12.9665 -13.3501 2.86393
1963 1 -11.5526 -15.4856 2.95794
1968 1 -10.3607 -13.3185 2.97548
1969 1 -9.12094 -15.5281 2.64927
1974 1 -7.8642 -13.3728 2.70678
1975 1 -6.56632 -15.673 2.92258
1980 1 -5.39079 -13.3068 3.1872
1981 1 -3.91158 -15.7179 2.98494
1986 1 -2.66444 -13.4949 3.05421
1987 1 -1.38261 -15.6033 3.07324
1992 1 -0.181776 -13.1172 3.01227
2113 1 -47.4736 -11.2397 3.0515
2119 1 -44.9268 -11.0164 3.04009
2125 1 -42.4741 -11.2166 3.21104
2131 1 -40.0976 -11.1494 2.97483
2137 1 -37.4284 -11.2367 2.77661
2143 1 -34.8245 -11.1392 3.01021
2149 1 -32.0896 -11.2343 2.85949
2155 1 -29.5699 -11.2176 2.83919
2161 1 -27.0382 -11.3136 2.88222
2167 1 -24.6312 -11.1548 2.99537
2173 1 -21.9502 -11.1897 2.95677
2179 1 -19.4007 -11.1276 2.72015
2185 1 -16.7523 -11.2133 3.00149
2191 1 -14.2397 -11.2553 2.85375
2197 1 -11.7458 -11.0885 2.97565
2203 1 -9.24125 -10.9379 2.92824
2209 1 -6.71584 -10.9543 2.78249
2215 1 -4.15313 -11.2625 3.05078
2221 1 -1.45713 -11.1839 2.88623
2112 1 -48.9161 -9.02079 2.92036
2347 1 -47.6752 -6.81066 3.2282
2341 1 -50.0159 -6.81166 3.15299
2118 1 -46.4715 -9.02637 2.79586
2353 1 -44.9692 -6.79714 3.06721
2124 1 -43.652 -8.96695 3.39875
2130 1 -41.1547 -8.89279 3.17737
2359 1 -42.5837 -6.89245 2.99443
2136 1 -38.7212 -8.93094 3.08
2365 1 -39.8939 -6.70316 2.82183
2142 1 -36.1874 -9.07486 2.96685
2371 1 -37.3561 -6.58638 3.01472
2377 1 -34.6503 -6.97531 2.93075
2148 1 -33.3362 -9.03575 2.73886
2383 1 -32.1652 -6.67898 3.03672
2154 1 -30.9344 -9.02241 3.03387
2389 1 -29.6339 -6.68013 3.10388
2160 1 -28.3988 -8.93373 2.97766
2166 1 -25.8024 -9.0235 2.97272
2395 1 -27.1059 -6.94943 3.2694
2172 1 -23.2697 -9.02495 2.90573
2401 1 -24.4378 -6.73753 2.94343
2407 1 -21.9264 -6.71113 2.74897
2178 1 -20.6464 -9.04017 2.98868
2413 1 -19.4538 -6.74208 3.17162
2184 1 -18.0301 -8.90128 3.07881
2419 1 -16.689 -6.53141 3.13123
2190 1 -15.4846 -9.08663 3.17453
2196 1 -12.979 -9.087 2.83993
2425 1 -14.2256 -6.75645 2.7834
2202 1 -10.4461 -8.93282 2.81646
2431 1 -11.7228 -6.84772 2.8151
2208 1 -7.76064 -8.79261 3.03935
2437 1 -9.23936 -6.73477 2.8989
2443 1 -6.4194 -6.44048 2.67826
2214 1 -5.37456 -8.86113 3.01918
2449 1 -3.95059 -6.7569 3.06362
2220 1 -2.80067 -8.94416 3.01459
2455 1 -1.44884 -6.61385 3.08942
2226 1 -0.246364 -8.83879 3.22066
2346 1 -48.8212 -4.46465 2.94708
2352 1 -46.3424 -4.51547 3.12472
2358 1 -43.9434 -4.44279 2.95467
2364 1 -41.1205 -4.58489 2.80711
2370 1 -38.7078 -4.41052 3.07081
2376 1 -35.9383 -4.51433 3.05276
2382 1 -33.4032 -4.54687 3.14986
2388 1 -30.9767 -4.56588 3.08911
2394 1 -28.3401 -4.52827 3.01821
2400 1 -25.793 -4.58745 3.06716
2406 1 -23.2895 -4.45457 2.92315
2412 1 -20.5649 -4.62392 2.90926
2418 1 -18.041 -4.43413 3.14038
2424 1 -15.4525 -4.41215 2.93122
2430 1 -12.9783 -4.49165 3.15268
2436 1 -10.4095 -4.57224 3.03593
2442 1 -7.97041 -4.53618 2.93765
2448 1 -5.35164 -4.30909 3.20215
2454 1 -2.82648 -4.39063 3.03234
2460 1 -0.0934959 -4.46245 3.07732
2581 1 -47.4557 -2.38048 2.92912
2580 1 -48.8496 -0.0919268 3.18309
2587 1 -44.9897 -2.30968 3.12469
2586 1 -46.2873 -0.169998 3.13788
2593 1 -42.3381 -2.20447 3.01024
2592 1 -43.7028 -0.0203626 2.98068
2598 1 -41.1426 -0.0863912 3.12636
2599 1 -39.8011 -2.29911 3.22231
2604 1 -38.6134 -0.0197104 3.3023
2605 1 -37.2733 -2.29852 3.09782
2611 1 -34.6674 -2.26118 3.00346
2610 1 -36.0811 -0.164822 3.18251
2617 1 -32.1396 -2.31689 2.95697
2623 1 -29.4946 -2.43442 2.92369
2622 1 -30.8532 -0.0571426 2.88595
2629 1 -26.7375 -2.29327 2.97324
2635 1 -24.3089 -2.32005 3.11569
2640 1 -22.9827 -0.0510075 3.11104
2641 1 -21.8039 -2.33763 3.19094
2647 1 -19.236 -2.19277 2.95187
2646 1 -20.548 -0.159499 3.12212
2653 1 -16.9012 -2.06043 3.01082
2659 1 -14.2949 -2.2122 3.00322
2664 1 -12.8321 -0.130674 2.84206
2658 1 -15.3895 -0.0548576 2.8706
2665 1 -11.6496 -2.32814 3.10645
2670 1 -10.2802 -0.159055 3.11721
2671 1 -9.11466 -2.23106 3.16331
2677 1 -6.55284 -2.23424 3.01576
2676 1 -7.71458 -0.0731547 2.97682
2683 1 -3.97261 -2.31429 2.91663
2694 1 -0.236071 -0.0992865 3.07407
2689 1 -1.41397 -2.31712 2.71902
2688 1 -2.70518 -0.172682 3.03959
9 1 -47.3908 -49.7963 5.08475
15 1 -44.7751 -49.6331 5.17299
21 1 -42.099 -49.6208 5.09737
27 1 -39.562 -49.3689 5.08455
33 1 -37.2114 -49.6592 5.3673
39 1 -34.606 -49.6708 5.07166
45 1 -31.8737 -49.5068 4.84713
51 1 -29.3505 -49.566 4.99116
57 1 -26.9126 -49.6562 4.89867
63 1 -24.4194 -49.6865 5.15158
69 1 -21.7364 -49.7234 5.05664
75 1 -19.2056 -49.6731 5.03433
81 1 -16.7459 -49.5971 4.86959
87 1 -14.1213 -49.5412 4.83634
93 1 -11.6349 -49.6999 4.76732
99 1 -9.17664 -49.6082 5.08614
105 1 -6.56477 -49.5195 4.75255
111 1 -3.92773 -49.5629 5.10612
117 1 -1.28928 -49.7135 5.05122
4 1 -48.735 -47.4657 5.25365
243 1 -47.5105 -45.1996 5.32315
237 1 -49.9569 -45.2713 5.23458
10 1 -46.1474 -47.3887 5.11793
249 1 -44.8141 -45.2763 5.11191
16 1 -43.6005 -47.3898 5.05478
22 1 -41.0327 -47.1875 5.04959
255 1 -42.2155 -45.1294 4.98379
28 1 -38.3787 -47.3289 4.94303
261 1 -39.6449 -45.1072 4.91342
34 1 -35.8082 -47.529 5.1317
267 1 -37.1009 -45.0531 5.14436
273 1 -34.5605 -45.3712 4.89143
40 1 -33.2777 -47.5327 5.14626
279 1 -32.067 -45.3045 4.92533
46 1 -30.8286 -47.387 4.8198
285 1 -29.4675 -45.3569 5.17226
52 1 -28.0508 -47.4121 4.90688
58 1 -25.6901 -47.441 5.07487
291 1 -26.8649 -45.4392 4.81053
64 1 -23.2136 -47.4749 5.153
297 1 -24.4174 -45.1905 5.2295
303 1 -21.8327 -45.3777 5.0203
70 1 -20.6023 -47.5421 5.12323
309 1 -19.4172 -45.2269 4.85251
76 1 -18.164 -47.4026 4.7818
315 1 -16.8151 -45.1868 5.03806
82 1 -15.6305 -47.3541 5.02971
88 1 -12.9766 -47.3292 4.9455
321 1 -14.2945 -45.0787 5.05987
94 1 -10.3495 -47.378 5.00836
327 1 -11.7685 -45.2542 5.05898
100 1 -7.88136 -47.4963 5.02596
333 1 -9.08971 -45.254 4.96266
339 1 -6.53734 -45.3234 5.25635
106 1 -5.31508 -47.6017 4.98973
345 1 -3.89377 -45.1216 5.27911
112 1 -2.64613 -47.3587 5.18203
351 1 -1.17305 -45.1734 5.18266
238 1 -48.6982 -42.9468 5.0895
244 1 -46.2585 -42.9587 5.22662
250 1 -43.5868 -43.213 5.26764
256 1 -40.9412 -43.0007 5.11707
262 1 -38.4552 -43.0185 5.04542
268 1 -35.812 -42.9323 5.14876
274 1 -33.4219 -43.0627 4.83154
280 1 -30.9854 -43.047 5.11967
286 1 -28.4403 -43.261 5.11219
292 1 -25.7659 -43.1982 5.0527
298 1 -23.1331 -42.9462 4.90527
304 1 -20.6536 -42.9 4.9299
310 1 -18.2354 -42.9902 4.88053
316 1 -15.6422 -42.9359 4.98291
322 1 -12.8396 -42.9984 5.1028
328 1 -10.4259 -43.1651 4.81025
334 1 -7.69978 -42.9224 5.16645
340 1 -5.36263 -43.0964 5.19086
346 1 -2.66195 -43.1106 4.93702
472 1 -48.7657 -38.4607 5.04671
477 1 -47.3681 -40.7364 5.15362
471 1 -49.9495 -40.811 5.03824
478 1 -46.1594 -38.5635 5.14333
483 1 -44.8544 -40.9165 5.00815
484 1 -43.7919 -38.6272 5.14743
489 1 -42.3036 -40.7788 5.04254
490 1 -41.2005 -38.6323 5.24538
495 1 -39.8847 -40.7202 5.17349
496 1 -38.6928 -38.4819 5.10862
501 1 -37.3979 -40.7986 4.93154
502 1 -35.9447 -38.5987 5.08009
507 1 -34.7569 -40.6665 4.9644
508 1 -33.5313 -38.5408 5.0191
513 1 -32.3422 -40.7341 4.85692
514 1 -30.8611 -38.4511 5.18246
519 1 -29.7756 -40.7389 4.92873
520 1 -28.2613 -38.4151 4.8232
525 1 -27.1672 -41.0215 5.08905
526 1 -25.6731 -38.6115 5.00936
531 1 -24.6106 -40.858 4.81024
532 1 -23.2226 -38.4755 4.866
537 1 -22.0985 -40.5906 4.90138
538 1 -20.592 -38.5192 4.89107
543 1 -19.3345 -40.6338 4.86333
544 1 -17.8816 -38.4266 5.01242
549 1 -16.8926 -40.8231 4.97906
555 1 -14.3954 -40.6916 4.95276
550 1 -15.5123 -38.44 4.93828
556 1 -12.8561 -38.3889 5.12324
561 1 -11.7389 -40.8714 5.11236
562 1 -10.4464 -38.5138 5.22751
567 1 -9.18018 -40.7731 5.10902
568 1 -7.84108 -38.7681 4.94351
573 1 -6.44266 -40.7213 5.05329
574 1 -5.27451 -38.5489 5.12903
579 1 -3.87537 -40.7503 4.83634
580 1 -2.58887 -38.4318 4.94913
585 1 -1.42067 -40.8962 4.80297
586 1 -0.195733 -38.6446 4.83817
711 1 -47.3885 -36.2668 5.07927
717 1 -44.7801 -36.0763 5.15715
723 1 -42.3192 -36.518 5.01499
729 1 -39.8178 -36.3474 4.99334
735 1 -37.2972 -36.4046 5.00362
741 1 -34.7033 -36.2565 4.94258
747 1 -32.2161 -36.1792 4.82869
753 1 -29.6935 -36.2123 4.89174
759 1 -26.9815 -36.22 4.794
765 1 -24.3792 -36.2531 4.99898
771 1 -21.9227 -36.3565 4.88749
777 1 -19.47 -36.2202 4.96429
783 1 -16.6943 -36.2973 5.1422
789 1 -14.1508 -36.4372 5.06541
795 1 -11.5071 -36.2913 4.93326
801 1 -9.08176 -36.3045 4.99487
807 1 -6.64246 -36.4353 5.08877
813 1 -3.99965 -36.3391 5.13453
819 1 -1.32373 -36.188 5.12175
706 1 -48.7194 -34.0851 5.02788
712 1 -46.2225 -34.0501 5.13087
718 1 -43.3795 -33.9245 5.14325
724 1 -40.9226 -34.1216 5.04182
730 1 -38.4657 -34.1314 5.0274
736 1 -35.96 -34.1388 5.04145
742 1 -33.4761 -33.9106 4.93936
748 1 -30.7126 -33.9634 4.7714
754 1 -28.1525 -34.0147 4.72938
760 1 -25.5635 -34.0826 4.88094
766 1 -23.1528 -33.9573 5.04201
772 1 -20.51 -34.0573 4.97968
778 1 -17.9221 -33.9915 5.12076
784 1 -15.3942 -34.2091 5.12584
790 1 -12.7249 -34.183 5.15453
1023 1 -14.0505 -31.9883 5.04717
796 1 -10.1668 -34.133 5.16727
1029 1 -11.4566 -31.9677 5.10705
802 1 -7.63405 -34.1701 5.06516
808 1 -5.07373 -34.154 5.19682
820 1 -0.0859758 -34.0567 5.04598
814 1 -2.74345 -34.0174 5.04955
945 1 -47.4974 -31.9037 5.00035
940 1 -48.9498 -29.5924 5.0183
939 1 -49.8714 -31.8446 4.92493
951 1 -44.8565 -31.6594 5.22124
946 1 -46.3032 -29.6536 5.15338
957 1 -42.3503 -31.7863 5.17605
952 1 -43.6863 -29.4273 5.23881
958 1 -41.0252 -29.6881 5.10361
963 1 -39.6301 -31.8828 5.1179
964 1 -38.4944 -29.7066 5.09467
975 1 -34.5297 -31.6527 4.99575
969 1 -37.1019 -31.7664 4.99937
970 1 -35.9621 -29.6526 5.18045
981 1 -32.0269 -31.8005 4.86045
976 1 -33.2499 -29.5251 5.12645
987 1 -29.5201 -31.8138 4.98079
982 1 -30.7831 -29.577 4.8564
988 1 -28.3101 -29.6719 4.75247
993 1 -26.9508 -31.6657 4.82871
994 1 -25.609 -29.5441 4.80795
999 1 -24.3187 -31.7878 4.93377
1000 1 -23.211 -29.5098 4.82703
1005 1 -21.866 -31.7905 4.99301
1011 1 -19.4158 -31.9017 4.99553
1006 1 -20.7818 -29.5382 4.83968
1017 1 -16.5235 -31.9064 5.00349
1012 1 -18.0398 -29.8567 5.08514
1018 1 -15.392 -29.8344 5.06745
1024 1 -12.8634 -29.575 4.95977
1030 1 -10.289 -29.6073 5.11511
1041 1 -6.51648 -31.835 5.15254
1035 1 -9.00314 -31.9093 5.0326
1036 1 -7.78878 -29.7537 5.23677
1047 1 -4.01589 -31.8595 4.83788
1042 1 -5.38384 -29.4987 5.11988
1053 1 -1.30075 -31.7197 4.95994
1048 1 -2.79463 -29.7281 5.04886
1054 1 -0.0302645 -29.7937 4.95511
1179 1 -47.6082 -27.408 5.02293
1185 1 -45.0983 -27.3842 5.0483
1191 1 -42.329 -27.3573 5.30985
1197 1 -39.6555 -27.4967 5.06266
1203 1 -37.129 -27.4276 5.21562
1209 1 -34.6058 -27.3758 4.98521
1215 1 -31.9689 -27.2662 4.88982
1221 1 -29.5311 -27.3531 4.91468
1227 1 -26.9275 -27.2911 4.92474
1233 1 -24.4392 -27.2997 4.77686
1239 1 -21.8672 -27.2744 4.99022
1245 1 -19.5124 -27.4103 4.93287
1251 1 -16.8092 -27.4006 4.85173
1257 1 -14.4076 -27.5164 5.06747
1263 1 -11.8864 -27.2643 5.09711
1269 1 -9.22523 -27.4143 4.9709
1275 1 -6.59485 -27.3199 4.75814
1281 1 -3.98686 -27.4136 4.98016
1287 1 -1.44121 -27.3252 5.35067
1174 1 -48.8901 -25.1903 5.06996
1413 1 -47.6033 -22.9812 4.92249
1180 1 -46.3314 -25.1281 5.02209
1419 1 -44.9093 -22.9934 5.14929
1186 1 -43.7488 -25.2238 5.21318
1192 1 -41.1356 -25.2359 5.12849
1425 1 -42.3209 -23.0175 5.30711
1198 1 -38.3995 -25.1592 5.07678
1431 1 -39.6797 -23.0481 5.1058
1204 1 -35.9755 -25.1859 5.0758
1437 1 -37.2312 -22.8787 4.98824
1443 1 -34.7691 -22.9946 4.90077
1210 1 -33.5046 -25.1627 4.93273
1449 1 -32.1168 -22.968 4.8782
1216 1 -30.7492 -25.1041 5.10014
1455 1 -29.4874 -22.9295 5.03521
1222 1 -28.24 -25.2412 5.10891
1228 1 -25.7692 -25.0955 4.87856
1461 1 -26.9467 -23.0537 5.03816
1234 1 -23.1803 -25.1441 4.63629
1467 1 -24.3561 -22.9918 4.86925
1473 1 -21.8274 -22.9719 4.77933
1240 1 -20.6185 -25.0264 4.8462
1479 1 -19.2613 -22.9767 4.89348
1246 1 -18.0507 -25.269 4.78108
1485 1 -16.6133 -22.9357 4.86246
1252 1 -15.5115 -25.1751 5.00532
1258 1 -13.1759 -25.0783 4.89943
1491 1 -14.2917 -22.9918 5.00422
1264 1 -10.5627 -25.186 5.04077
1497 1 -11.7007 -22.8685 5.10395
1270 1 -8.05749 -25.098 5.04999
1503 1 -9.01724 -22.9786 5.00301
1509 1 -6.49848 -23.0089 5.18348
1276 1 -5.09319 -25.238 5.12489
1515 1 -3.95708 -22.8321 5.17253
1282 1 -2.60523 -25.0905 5.18532
1521 1 -1.18645 -22.8643 5.11192
1288 1 -0.0809936 -25.2221 5.33252
1408 1 -48.7719 -20.7106 5.11249
1414 1 -46.2655 -20.8675 5.09837
1420 1 -43.5592 -20.9483 5.19107
1426 1 -40.9889 -20.6668 5.27548
1432 1 -38.4831 -20.737 5.07375
1438 1 -36.0036 -20.6908 5.07832
1444 1 -33.3671 -21.0695 4.93315
1450 1 -30.9106 -20.8861 5.08984
1456 1 -28.2552 -20.8082 5.04187
1462 1 -25.7991 -20.8123 4.99701
1468 1 -23.0918 -20.7075 5.05576
1474 1 -20.6689 -20.7367 4.98651
1480 1 -18.0342 -20.7248 4.97251
1486 1 -15.4893 -20.7174 4.93891
1492 1 -13.0329 -20.7754 4.98684
1498 1 -10.1788 -20.8141 4.84925
1504 1 -7.73367 -20.9137 5.11041
1510 1 -5.25991 -20.7654 4.89747
1516 1 -2.73298 -20.7225 4.97206
1522 1 -0.242714 -20.6261 5.1084
1642 1 -48.9949 -16.3857 5.05576
1647 1 -47.5056 -18.8009 5.19454
1648 1 -46.4908 -16.4901 5.19361
1653 1 -44.9411 -18.6782 5.27819
1654 1 -43.7179 -16.3439 5.16649
1659 1 -42.5097 -18.5671 5.1181
1660 1 -41.3128 -16.3122 4.95639
1665 1 -39.8856 -18.484 4.93501
1666 1 -38.716 -16.3105 5.25573
1671 1 -37.3045 -18.5218 5.05525
1672 1 -36.0406 -16.0944 5.25149
1677 1 -34.6149 -18.6582 4.91118
1678 1 -33.4129 -16.5825 4.93045
1683 1 -32.1838 -18.7743 5.1762
1684 1 -30.8446 -16.4102 5.06276
1689 1 -29.6507 -18.5405 5.1641
1690 1 -28.2986 -16.2859 5.25866
1695 1 -26.9865 -18.5059 5.05954
1696 1 -25.7095 -16.3075 5.02204
1701 1 -24.571 -18.5851 5.18027
1702 1 -23.2787 -16.356 5.08894
1707 1 -21.8198 -18.5578 5.00126
1708 1 -20.6443 -16.2403 5.0386
1713 1 -19.3667 -18.5368 5.03794
1714 1 -18.1576 -16.2966 5.22691
1719 1 -16.8251 -18.4132 5.01677
1720 1 -15.5533 -16.2158 5.10731
1725 1 -14.155 -18.5275 4.8826
1726 1 -13.082 -16.238 4.89199
1731 1 -11.5663 -18.6594 4.85833
1732 1 -10.5336 -16.4042 5.04698
1737 1 -9.08004 -18.6287 5.08111
1738 1 -7.88195 -16.3207 5.0805
1743 1 -6.53873 -18.5696 5.14088
1744 1 -5.40947 -16.45 5.11316
1749 1 -3.93342 -18.6628 5.23296
1750 1 -2.88115 -16.2849 5.07752
1755 1 -1.51648 -18.3742 5.20605
1756 1 -0.211923 -16.2252 5.21514
1881 1 -47.775 -14.1029 5.09042
1887 1 -45.1048 -14.1732 5.10179
1893 1 -42.45 -14.1132 5.14899
1899 1 -39.9863 -14.2683 5.18313
1905 1 -37.4092 -13.8986 5.11419
1911 1 -34.7271 -14.1155 5.10979
1917 1 -32.2096 -14.0588 5.12882
1923 1 -29.8124 -14.2737 4.93623
1929 1 -27.019 -14.0723 5.19667
1935 1 -24.4065 -13.918 4.96964
1941 1 -21.9473 -14.06 5.04135
1947 1 -19.4326 -14.0866 4.98521
1953 1 -16.9611 -14.0792 5.19645
1959 1 -14.2231 -14.1307 4.85951
1965 1 -11.6027 -14.2 5.14615
1971 1 -9.23593 -14.0885 4.98456
1977 1 -6.59516 -14.204 4.94716
1983 1 -4.05995 -14.3374 5.087
1989 1 -1.34871 -14.0093 5.22724
1876 1 -48.9017 -11.8765 5.1579
2115 1 -47.5107 -9.73955 4.96571
1882 1 -46.235 -11.9449 5.09751
2121 1 -45.0407 -9.71042 5.22544
1888 1 -43.7896 -11.9668 5.23169
1894 1 -41.1394 -12.2097 5.19942
2127 1 -42.5687 -9.81182 5.33136
1900 1 -38.6644 -11.8006 5.09161
2139 1 -37.5731 -9.78252 4.98433
1906 1 -36.014 -11.9992 4.92726
2145 1 -34.9892 -9.63317 5.03471
1912 1 -33.6297 -11.6942 5.0149
2151 1 -32.1264 -9.65353 5.18923
1918 1 -30.8484 -11.8579 4.9998
1924 1 -28.2489 -11.888 4.9442
2157 1 -29.7295 -9.76199 5.05607
1930 1 -25.6695 -11.6435 5.22191
2163 1 -27.1416 -9.65597 5.05968
1936 1 -23.2181 -11.7544 5.0258
1942 1 -20.7297 -11.8918 5.00947
2181 1 -19.4168 -9.72439 5.18495
1948 1 -18.1092 -11.8241 5.06847
2187 1 -16.8922 -9.68558 5.11688
1954 1 -15.4022 -11.8947 5.06623
1960 1 -12.8001 -12.0354 5.1465
2193 1 -14.182 -9.67253 4.99612
1966 1 -10.3674 -11.998 5.06423
2199 1 -11.6856 -9.64878 5.04016
1972 1 -7.96081 -11.8165 5.05994
2211 1 -6.49393 -9.85884 5.0426
2205 1 -9.22318 -9.59411 4.9992
1978 1 -5.39588 -11.9812 5.21535
2217 1 -4.03399 -9.70419 5.17438
1984 1 -2.77474 -11.8844 5.11998
2223 1 -1.55186 -9.66981 5.11546
1990 1 -0.0832422 -11.6967 5.14465
2110 1 -48.9516 -7.68293 5.1274
2116 1 -46.2836 -7.59082 5.07469
2122 1 -43.7705 -7.21645 5.17975
2128 1 -41.281 -7.36187 4.9974
2133 1 -40.1192 -9.54068 5.24176
2134 1 -38.75 -7.46348 5.09504
2140 1 -36.1874 -7.61691 5.18863
2146 1 -33.5071 -7.60496 5.19614
2152 1 -31.0676 -7.47225 5.13261
2158 1 -28.6478 -7.50045 5.17001
2164 1 -25.9245 -7.53623 5.1808
2169 1 -24.537 -9.498 5.07679
2175 1 -22.0923 -9.49292 5.1494
2170 1 -23.1879 -7.41472 5.11483
2176 1 -20.5879 -7.57968 5.3116
2182 1 -18.0969 -7.41397 5.30267
2188 1 -15.4004 -7.54875 5.25137
2194 1 -12.8595 -7.34339 4.99143
2200 1 -10.4584 -7.50414 4.88586
2206 1 -7.7347 -7.30165 5.04288
2212 1 -5.33019 -7.39574 5.02027
2224 1 -0.346695 -7.42964 5.30299
2218 1 -2.88046 -7.44503 5.09242
2349 1 -47.7699 -5.28458 5.13528
2355 1 -45.1192 -5.26152 5.05492
2361 1 -42.6125 -5.18184 4.96734
2367 1 -39.9039 -5.32078 4.96544
2373 1 -37.2762 -5.28748 5.06912
2379 1 -34.8491 -5.5375 5.064
2385 1 -32.1899 -5.19891 5.04699
2391 1 -29.6528 -5.35397 5.07607
2397 1 -27.127 -5.18151 5.22227
2403 1 -24.4448 -5.3183 5.16131
2409 1 -21.8931 -5.3755 4.87989
2415 1 -19.2971 -5.29929 5.15342
2421 1 -16.8628 -5.1581 5.27492
2427 1 -14.2744 -5.26525 5.09238
2433 1 -11.6884 -5.31841 5.07633
2439 1 -9.14697 -5.26774 5.06152
2445 1 -6.55756 -5.20008 5.11837
2451 1 -3.88529 -5.27183 5.20419
2457 1 -1.46559 -5.16471 5.26657
2344 1 -48.8548 -2.98769 5.14425
2583 1 -47.4794 -0.708083 5.11822
2350 1 -46.4469 -3.11413 5.11008
2589 1 -45.0547 -0.753321 5.23417
2356 1 -43.7978 -2.9308 5.13312
2362 1 -41.1893 -3.1105 5.15568
2595 1 -42.6084 -0.838911 5.18887
2368 1 -38.5183 -2.95017 5.18824
2601 1 -39.891 -0.693271 5.18658
2374 1 -35.8596 -2.8966 5.15425
2607 1 -37.2345 -0.757988 5.24177
2613 1 -34.6062 -0.536341 5.27888
2380 1 -33.3944 -2.97998 5.15949
2619 1 -32.0765 -0.732113 4.92529
2392 1 -28.1563 -2.9028 4.92572
2386 1 -30.7913 -2.89075 5.15796
2625 1 -29.6376 -0.757373 4.94434
2398 1 -25.6922 -2.95511 5.28727
2631 1 -26.8935 -0.660617 5.05999
2404 1 -23.1915 -3.11621 5.20031
2637 1 -24.3374 -0.805816 5.01163
2643 1 -21.751 -0.907426 5.29556
2410 1 -20.5729 -3.13238 5.1064
2649 1 -19.3083 -0.91415 5.21408
2416 1 -17.9722 -2.97381 5.16324
2655 1 -16.6134 -0.720648 5.34918
2428 1 -12.738 -3.05538 5.27577
2422 1 -15.3229 -2.98537 5.08018
2661 1 -14.1524 -0.775711 5.00608
2434 1 -10.2708 -2.95465 5.16185
2667 1 -11.6015 -0.856202 5.08785
2440 1 -7.81026 -3.02952 5.05944
2673 1 -8.88506 -0.888641 5.20792
2679 1 -6.41836 -0.847349 5.24909
2446 1 -5.26242 -3.02247 5.32117
2685 1 -3.78001 -0.848621 5.26428
2452 1 -2.78679 -3.00848 4.96234
2691 1 -1.44593 -0.966912 5.05327
2458 1 -0.200412 -2.95104 5.20784
5 1 -48.6289 -50.3435 7.42408
8 1 -47.285 -48.2533 7.15353
5388 1 -48.6906 -48.7678 9.53724
11 1 -46.0357 -50.5149 7.22532
14 1 -44.7226 -48.2155 7.3358
5394 1 -46.2874 -49.1576 9.23861
17 1 -43.5214 -50.3896 7.31311
5400 1 -43.6154 -48.9291 9.56476
20 1 -42.292 -48.1711 7.17246
23 1 -41.0137 -50.3082 7.26417
5406 1 -40.9786 -48.6756 9.43645
29 1 -38.6312 -50.2554 7.31822
26 1 -39.7315 -47.8942 7.05544
5412 1 -38.4372 -48.7009 9.34843
5419 1 -34.5992 -50.9818 9.44787
38 1 -34.446 -48.0726 7.28216
32 1 -37.1349 -48.0176 7.241
35 1 -35.9562 -50.3905 7.26548
5418 1 -35.8535 -48.7657 9.28427
5413 1 -37.334 -50.9695 9.23178
44 1 -31.9559 -48.0811 7.0126
41 1 -33.3554 -50.3741 7.19789
5424 1 -33.3039 -48.9902 9.37347