# LAMMPS data file written by OVITO Basic 3.7.12
1 atoms
1 atom types
0.0 4.3499992955 xlo xhi
0.0 3.7672098963 ylo yhi
0.0 3.5517595518 zlo zhi
2.1749996477 2.1749996477 1.2557366321 xy xz yz

Masses

1 12.0107  # C

Atoms  # atomic

1 1 0.0 0.0 0.0

Velocities

1 1.0 2.0 3.0
