ITEM: TIMESTEP
0
ITEM: NUMBER OF ATOMS
1
ITEM: BOX BOUNDS xy xz yz pp pp pp
0.0 8.6999985909 2.1749996477
0.0 5.0229465284 2.1749996477
0.0 3.5517595518 1.2557366321
ITEM: ATOMS x y z type id vx vy vz mass
0.0 0.0 0.0 1 1 1.0 2.0 3.0 12.0107
