1000
Time=1.00000000 pbc="T T T" Lattice="25.93282611 0.00000000 0.00000000 0.00000000 25.93282611 0.00000000 0.00000000 0.00000000 25.93282611" energy=-4970.50832736 virial="11.77085466 -19.20744438 6.33530486 -19.20744438 -1.34938405 -3.42324611 6.33530486 -3.42324611 -7.55473996" stress="0.00067532 -0.00110132 0.00036325 -0.00110132 -0.00007701 -0.00019629 0.00036325 -0.00019629 -0.00043281" Properties=species:S:1:pos:R:3:forces:R:3:energy_atom:R:1:virial:R:9
Cu 24.42298970 9.99221222 13.12848672 -0.05806541 0.07312152 0.34551002 -3.58308952 0.19468022 -0.04274352 -0.54205628 -0.04274352 0.43827998 0.00915147 -0.54205628 0.00915147 -0.11000337
Cu 22.13446604 6.94900122 10.59840103 0.21367879 -0.15271724 -0.30782341 -3.68172655 0.60516812 0.16428793 0.06041385 0.16428793 0.57598835 0.12550533 0.06041385 0.12550533 0.90408999
Cu 14.16738890 1.83172352 5.40868342 -0.18836890 0.12518932 -0.21894641 -3.54256148 0.54220070 -0.07214438 0.39116566 -0.07214438 0.65630199 0.35069405 0.39116566 0.35069405 0.21809872
Cu 5.50949089 11.91792722 14.19650743 0.37950649 -0.49951626 0.14901998 -3.61226194 0.21303476 0.21369211 0.08708369 0.21369211 1.03801436 -0.26104438 0.08708369 -0.26104438 0.10850693
Cu 11.25039199 24.84425013 15.78753807 -0.10439683 -0.18739259 -0.06569086 -3.63576537 -0.07590379 0.25797028 0.34440577 0.25797028 0.39240087 -0.21489452 0.34440577 -0.21489452 -0.47623878
Cu 25.76104029 23.50047594 2.00088883 0.22950837 0.23882914 -0.30115364 -3.55034604 0.47893235 -0.18553485 -0.09475451 -0.18553485 0.31468153 -0.27383439 -0.09475451 -0.27383439 0.90755809
Cu 8.74829427 6.30647207 18.68090903 -0.49412266 0.06165396 0.12534932 -3.47559665 0.80391513 -0.05538739 0.16127765 -0.05538739 0.32751018 -0.16852891 0.16127765 -0.16852891 0.80367273
Cu 2.09832704 16.60033655 16.74459622 -0.01350374 0.09947229 -0.24460584 -3.66317744 -0.28002466 -0.24995678 -0.10626231 -0.24995678 -0.33275791 -0.20566828 -0.10626231 -0.20566828 -0.41761283
Cu 0.56195560 8.71660011 0.62728244 0.00244897 0.07899035 -0.20772796 -3.53982098 1.95182464 -0.20473527 -0.93923696 -0.20473527 0.18352931 -0.42209505 -0.93923696 -0.42209505 0.26643954
Cu 21.85496189 9.12919466 11.67599611 -0.04046260 -0.15183904 0.31483563 -3.65649981 0.07743824 -0.28304824 -0.48328341 -0.28304824 0.15662684 -0.09118719 -0.48328341 -0.09118719 -0.26115701
Cu 5.85854665 2.80735543 24.29121750 0.07846689 -0.07773636 0.31391991 -3.55823519 0.11657857 0.07694349 0.00693156 0.07694349 0.65498771 0.27550763 0.00693156 0.27550763 0.80477113
Cu 1.31869479 17.62857635 19.00110032 -0.12720802 0.00229813 0.05260523 -3.62026280 0.12090215 -0.07882519 0.23457168 -0.07882519 -0.53410441 -0.01086729 0.23457168 -0.01086729 -0.17151858
Cu 15.49936253 17.06278185 25.89940152 0.45592814 0.09620792 0.10579290 -3.53604490 0.68864592 -0.25113032 -0.19034903 -0.25113032 -0.14046631 -0.08820090 -0.19034903 -0.08820090 0.03589521
Cu 23.55530786 24.56245001 1.61774410 0.28306056 0.25651100 0.38648206 -3.55109793 0.96318566 -0.07459688 0.04089089 -0.07459688 0.47002820 0.07943978 0.04089089 0.07943978 1.43023410
Cu 0.61593136 8.86190982 13.03787134 -0.11123129 0.23524097 -0.19611586 -3.59081225 0.71264264 -0.62491681 0.31189477 -0.62491681 0.86450011 -0.02840044 0.31189477 -0.02840044 0.90043411
Cu 23.20383433 12.16975099 24.00372813 0.04869858 -0.05346834 0.32613934 -3.64428261 -0.23012803 0.49366413 -0.00890836 0.49366413 -0.17891205 0.16422896 -0.00890836 0.16422896 -0.49983245
Cu 2.20602499 18.56473681 2.88461065 -0.28170840 -0.16643123 -0.27022627 -3.68016371 -0.36090559 0.29149588 0.27008167 0.29149588 -0.14079491 0.05249372 0.27008167 0.05249372 -0.44781781
Cu 5.86039634 8.47103259 7.11660237 -0.08116333 -0.40170868 0.33658685 -3.54345810 -0.03744499 -0.12665630 -0.08086784 -0.12665630 0.27663673 -0.27772230 -0.08086784 -0.27772230 -0.14652294
Cu 4.67671546 3.77373062 8.90433493 0.04957124 0.03121171 -0.00294216 -3.69795445 -0.66685877 -0.37581337 -0.02795322 -0.37581337 0.24014759 0.36230017 -0.02795322 0.36230017 -0.75771129
Cu 11.08793013 14.13305636 4.72081191 0.29648610 -0.15836954 -0.14251899 -3.61764852 0.59655410 0.53781353 -0.19571415 0.53781353 0.40572817 -0.20226316 -0.19571415 -0.20226316 0.73075274
Cu 13.64034638 7.29181163 17.81239515 0.04510166 -0.28600803 0.24792678 -3.62117204 1.08405467 -0.12590501 0.46489055 -0.12590501 0.37455235 -0.10776179 0.46489055 -0.10776179 0.40097646
Cu 2.75685099 10.88754993 12.90346974 0.04814455 -0.23416105 0.51736295 -3.64412177 0.50038603 -0.25892021 -0.26983944 -0.25892021 -0.27663771 0.24960086 -0.26983944 0.24960086 -0.10465696
Cu 2.17238565 10.82487686 4.23783371 0.21719972 -0.27401660 -0.44789585 -3.66962786 -0.00400016 -0.04858230 -0.38246928 -0.04858230 -0.00189429 -0.39765507 -0.38246928 -0.39765507 -0.24702114
Cu 16.42082332 12.44558811 2.97583781 -0.04843499 0.31552279 -0.28167628 -3.51728771 0.64041344 0.44367603 0.63235754 0.44367603 0.05975046 -0.21977884 0.63235754 -0.21977884 -0.69374848
Cu 16.76091592 25.58945692 2.66115485 0.41774273 -0.07347241 0.39288565 -3.70972768 -0.23555021 0.26977166 0.26346049 0.26977166 -0.61903667 -0.01011405 0.26346049 -0.01011405 -0.12625133
Cu 20.73353191 4.28810698 14.53131207 0.28860947 0.05577761 0.01749984 -3.64604946 -0.44655641 -0.20580155 0.12289229 -0.20580155 -0.89110749 -0.03568216 0.12289229 -0.03568216 0.10539903
Cu 19.55337878 4.35436375 12.38671023 0.00234793 0.05357595 0.13794602 -3.65571707 0.26338976 0.53399653 -0.12719722 0.53399653 -0.29127930 0.09199743 -0.12719722 0.09199743 0.67173514
Cu 17.56207877 14.81024540 16.96792223 -0.03345095 0.47669344 0.10587563 -3.63603188 -0.27095178 -0.10296693 -0.02357275 -0.10296693 0.76637996 -0.30930767 -0.02357275 -0.30930767 0.00108599
Cu 15.19920460 21.44436525 12.67353442 -0.30523112 0.07097428 0.33251241 -3.67121311 -0.67322111 0.02274729 0.58416113 0.02274729 -0.84841157 -0.42948961 0.58416113 -0.42948961 0.46195617
Cu 5.50748460 0.19279038 13.06810605 -0.09654118 0.35628269 0.10471638 -3.64718511 -0.52788825 -0.49086370 -0.01742095 -0.49086370 -0.04231778 0.35859891 -0.01742095 0.35859891 0.08453993
Cu 16.80658662 2.74854375 22.52943510 0.26138201 0.41531204 0.06021521 -3.66410458 -0.94364086 0.14070490 0.14213569 0.14070490 -0.51007770 0.41151710 0.14213569 0.41151710 -0.36348108
Cu 20.06769477 23.77886365 14.69801851 -0.18141006 -0.24655368 0.07312433 -3.71469857 0.19483087 -0.23724734 -0.13436781 -0.23724734 0.13778525 -0.13455189 -0.13436781 -0.13455189 -0.16218200
Cu 7.80244194 9.40092800 8.83915247 0.29622499 0.52832794 -0.12770601 -3.59243047 0.48908164 0.28802507 -0.41788988 0.28802507 0.30952995 -0.27300301 -0.41788988 -0.27300301 0.27747556
Cu 11.55863355 0.86404541 17.46146903 0.06973398 0.21744496 0.19610465 -3.55421705 0.25332807 0.01537440 0.12357628 0.01537440 0.69272757 -0.35998882 0.12357628 -0.35998882 -0.54838928
Cu 25.40501285 12.60255096 16.67575828 -0.04987450 -0.17580217 0.01819110 -3.65670866 0.13457958 0.25720678 0.12169314 0.25720678 0.02855040 -0.40594534 0.12169314 -0.40594534 0.18649148
Cu 22.34664115 14.89432641 12.45245721 -0.53053223 0.05867438 0.58210923 -3.69663815 -0.25790598 0.09073805 -0.43955942 0.09073805 -0.23326083 0.27395665 -0.43955942 0.27395665 -0.13244090
Cu 21.14763430 13.21952088 19.30783344 0.21369565 -0.02355263 -0.06012212 -3.59486475 0.39899212 0.19594351 -0.01561516 0.19594351 -0.07753495 0.59327850 -0.01561516 0.59327850 -0.02111220
Cu 9.10833117 22.81791762 12.04583700 0.29451305 0.20744631 0.08351732 -3.55216164 0.09878924 -0.06805238 0.19513071 -0.06805238 0.43399774 -0.77612293 0.19513071 -0.77612293 0.46602045
Cu 15.86161914 10.27317949 18.94470383 -0.31064372 -0.19993467 -0.49257987 -3.62145790 -0.18764059 -0.06224972 -0.02823581 -0.06224972 0.39696151 -0.13123128 -0.02823581 -0.13123128 0.85227382
Cu 3.81273765 6.91846848 24.13966845 -0.11762367 0.00700806 -0.00917988 -3.60900931 0.64862515 0.08400925 0.12008181 0.08400925 0.03211122 -0.07003537 0.12008181 -0.07003537 -0.40205891
Cu 13.72318838 20.58461363 15.79868299 -0.21709978 0.01596465 0.07623392 -3.65359256 -0.37743365 -0.28047826 -0.03084582 -0.28047826 0.17338785 0.07546306 -0.03084582 0.07546306 -0.10818718
Cu 18.12610521 22.50289511 15.89110830 0.32707105 0.11825748 -0.14182501 -3.74578829 0.01612024 0.30286262 0.25650719 0.30286262 -0.58616244 0.23535910 0.25650719 0.23535910 -0.56234502
Cu 2.96171481 0.06140320 22.94227313 -0.16727787 -0.06352497 0.36518233 -3.69133469 -0.02685996 0.21136099 -0.52390973 0.21136099 -0.12023192 -0.13126950 -0.52390973 -0.13126950 0.15294785
Cu 13.61449154 24.39989418 5.72218913 -0.31502622 -0.12885415 -0.25773561 -3.68677835 0.21088098 -0.10644658 -0.13264477 -0.10644658 -0.32951336 -0.16249723 -0.13264477 -0.16249723 0.41609680
Cu 24.61916898 15.95171314 14.45398240 -0.34147068 -0.01826808 0.37101007 -3.56574535 0.78207409 0.37831339 -0.53868976 0.37831339 0.94329283 -0.34321350 -0.53868976 -0.34321350 0.15720601
Cu 24.70384384 18.83984703 19.35884837 -0.02253230 -0.37035520 -0.12110726 -3.57039718 0.57136456 0.38171248 0.24594230 0.38171248 0.04372662 0.09301401 0.24594230 0.09301401 0.37697302
Cu 12.13679751 8.28398425 7.26644307 0.07983545 -0.00184822 -0.01743337 -3.65902367 -0.47101995 -0.06516011 0.12824402 -0.06516011 -0.68777640 -0.12653740 0.12824402 -0.12653740 -0.61392257
Cu 2.58777227 23.53695102 21.59148861 0.47201513 -0.04621586 0.04208672 -3.59327591 0.77243541 -0.34856909 0.28448292 -0.34856909 0.17910619 -0.27209888 0.28448292 -0.27209888 0.58385980
Cu 6.27045560 17.50163430 13.95428590 -0.55058434 -0.04784580 -0.08975663 -3.59751436 0.95608603 -0.71049383 0.12365122 -0.71049383 0.14789091 0.48984434 0.12365122 0.48984434 -0.14904334
Cu 19.92649642 22.32672943 22.55794711 0.28331718 0.50753079 0.05716237 -3.68154692 -0.48004857 0.32026865 0.04881591 0.32026865 0.19654004 0.08126547 0.04881591 0.08126547 -0.11619787
Cu 21.56590680 18.55047036 15.72802443 -0.00044127 0.36449118 0.40647392 -3.57368185 -0.41807619 -0.27219439 0.09208419 -0.27219439 0.36489242 0.31618770 0.09208419 0.31618770 0.38118667
Cu 0.93809162 1.38170631 16.24041417 0.03688161 0.11752392 -0.21828495 -3.56591202 -0.04488354 -0.20475094 -0.16378465 -0.20475094 1.04120558 0.09487250 -0.16378465 0.09487250 -0.28962336
Cu 11.21676673 6.03401803 2.32696879 0.05876265 0.32778827 -0.38998127 -3.59156795 -0.17148870 -0.09022061 -0.12037762 -0.09022061 0.31292176 -0.50948196 -0.12037762 -0.50948196 -0.44885709
Cu 17.01550786 20.04865927 9.43813489 0.14644941 0.08274816 -0.15531402 -3.66463799 -0.09518540 0.04270198 -0.42422920 0.04270198 0.38005344 0.22258101 -0.42422920 0.22258101 -0.25475767
Cu 14.70835439 15.42830409 6.67753926 0.21906519 -0.33073882 0.05754998 -3.54552067 1.07959486 0.28402973 -0.29874728 0.28402973 1.04898207 -0.67397085 -0.29874728 -0.67397085 0.55845035
Cu 22.49954291 14.42909677 25.08982655 -0.07577057 0.08491533 0.37999687 -3.71963833 -0.22409056 -0.11014395 0.28048432 -0.11014395 -0.61839626 0.37872487 0.28048432 0.37872487 -0.28309515
Cu 4.73003028 12.95478132 9.17238857 -0.48974672 0.05054646 -0.01703605 -3.64516509 0.06252826 -0.22371061 0.09721971 -0.22371061 0.00934299 -0.57166919 0.09721971 -0.57166919 0.08858564
Cu 22.00930550 21.40733792 11.02869478 -0.34920821 0.19150368 -0.01949405 -3.68722591 -0.49975136 -0.61268014 -0.16317405 -0.61268014 -0.39248118 0.13410592 -0.16317405 0.13410592 -0.22303377
Cu 12.39260053 3.02294075 13.47382320 -0.02235804 -0.21054275 0.02716533 -3.60336114 -0.79222099 -0.49976006 -0.18376606 -0.49976006 0.53898300 0.56494472 -0.18376606 0.56494472 -0.60868000
Cu 12.39850998 9.96008026 24.46797910 -0.00080725 -0.14561491 -0.05842167 -3.66389521 -0.43229085 -0.30190462 -0.20891583 -0.30190462 -0.48184361 0.05137557 -0.20891583 0.05137557 -0.73884036
Cu 17.26938507 24.71295008 0.17084519 -0.00965862 0.36444607 -0.20440586 -3.65326109 0.17828757 -0.40473283 -0.25205454 -0.40473283 0.02344742 -0.08747527 -0.25205454 -0.08747527 -0.29125574
Cu 23.48489859 25.56845386 21.54745776 0.00502975 0.02789565 0.03511436 -3.68687822 -0.20596686 0.25213414 -0.05792039 0.25213414 -0.68496981 0.00303268 -0.05792039 0.00303268 0.21883610
Cu 0.05636960 15.79217480 6.19371573 -0.00414425 0.31104335 -0.06506211 -3.63427248 0.32662939 -0.26956763 0.81521895 -0.26956763 -0.49379174 0.08829363 0.81521895 0.08829363 -0.26350815
Cu 12.58380308 20.32095912 2.92865903 -0.05654153 0.16378817 -0.08295963 -3.62516136 0.34394722 -0.16643856 0.15597772 -0.16643856 0.38439326 0.06104362 0.15597772 0.06104362 -0.58457204
Cu 23.82963511 21.87821897 1.66181193 -0.26766498 -0.02934165 0.18871275 -3.69640870 -0.13088601 -0.27970196 -0.58891933 -0.27970196 0.06341496 -0.03830664 -0.58891933 -0.03830664 0.09906570
Cu 24.08438944 18.33981217 14.64615428 -0.09897191 -0.49241721 0.18615417 -3.57757639 -0.10663669 -0.19592018 0.67334981 -0.19592018 0.72017727 -0.57667611 0.67334981 -0.57667611 -0.10401651
Cu 18.90275497 9.23093989 12.50118113 -0.44379435 0.16147712 -0.26968097 -3.52372395 0.41435090 0.33344354 0.33682126 0.33344354 0.84602697 0.03215204 0.33682126 0.03215204 0.93397031
Cu 7.80547817 17.62273918 9.54734830 0.16372501 -0.20870104 0.17183235 -3.56550478 -0.60273171 -0.30327718 -0.09860838 -0.30327718 -0.67506702 -0.46846376 -0.09860838 -0.46846376 0.13196981
Cu 22.29285463 24.37413910 15.55604694 0.12264462 -0.04954451 0.12993431 -3.58654156 -0.19504285 -0.50292326 0.16284812 -0.50292326 -0.16284145 0.21254132 0.16284812 0.21254132 -0.00115661
Cu 18.95327511 0.95398856 6.54730228 -0.49611431 -0.25450331 -0.11825610 -3.65426376 0.04693317 -0.21823914 0.20808324 -0.21823914 -0.43884418 -0.01521346 0.20808324 -0.01521346 -0.43447780
Cu 0.96292940 0.32196763 19.46338991 0.11107485 -0.03946258 -0.11243342 -3.62756289 -0.04916943 -0.52954480 0.12220791 -0.52954480 -0.60110873 -0.58139921 0.12220791 -0.58139921 0.30831714
Cu 21.93272499 7.64599634 23.53482611 0.24987140 0.20570114 0.19129153 -3.60112741 0.40734216 -0.45881037 -0.25149528 -0.45881037 0.45186372 -0.16440288 -0.25149528 -0.16440288 0.13926895
Cu 4.61345879 4.47828909 23.10581459 -0.00051350 0.46014197 -0.23618483 -3.64264698 0.15687509 -0.31819578 -0.21437795 -0.31819578 -0.53267575 -0.61081826 -0.21437795 -0.61081826 0.44140408
Cu 5.71562459 2.58024453 0.78352011 0.16522648 0.14759119 -0.28804213 -3.59502485 0.23868484 -0.47163710 -0.19020432 -0.47163710 0.72346788 -0.25121462 -0.19020432 -0.25121462 0.62446904
Cu 9.84612006 12.79540199 20.54396444 -0.24174404 -0.04883306 -0.12934669 -3.64309651 0.04224920 -0.44725127 -0.04984389 -0.44725127 -0.15137568 0.11363439 -0.04984389 0.11363439 -1.06156049
Cu 4.89284337 8.98908419 23.26851288 -0.06632851 -0.02536056 -0.42037422 -3.54424858 -0.33173198 0.19611703 0.09693082 0.19611703 0.43360464 -0.27383374 0.09693082 -0.27383374 0.75682841
Cu 12.64395214 5.99741962 15.96708678 -0.20073267 0.13446457 0.14018606 -3.63784332 -0.12771507 -0.06985492 0.08932841 -0.06985492 0.36502652 0.81731439 0.08932841 0.81731439 -0.69650763
Cu 23.35906748 1.34829599 4.78408979 -0.22686451 -0.13989247 0.17682483 -3.63406716 -0.06130725 0.12840525 0.07601491 0.12840525 0.22559041 0.42743188 0.07601491 0.42743188 0.02791349
Cu 2.62540421 12.96463324 2.71650640 0.00262962 0.15344689 -0.32517164 -3.71313834 -0.18283609 -0.19793166 -0.55321722 -0.19793166 -1.11218027 0.07617918 -0.55321722 0.07617918 -0.17046036
Cu 8.96465038 18.36394413 5.40032537 -0.04776814 0.03334451 0.14090475 -3.74670820 -0.18422959 -0.21754489 0.23593612 -0.21754489 -0.67770797 -0.00497064 0.23593612 -0.00497064 -0.84113692
Cu 23.49081334 19.49295414 10.93905348 -0.15811679 0.08359952 0.27334407 -3.53915692 -0.06798776 -0.66188622 0.18216505 -0.66188622 0.99224781 -0.31914467 0.18216505 -0.31914467 0.68218624
Cu 17.34109838 5.22512924 23.29404199 -0.10554696 -0.19745404 0.10802535 -3.64734917 0.10639519 -0.16534386 -0.20737266 -0.16534386 -0.51794473 0.14211301 -0.20737266 0.14211301 0.12270322
Cu 25.24124305 5.24409034 7.08342693 -0.16943342 -0.10160315 0.07538302 -3.74614399 -0.36655550 0.36545388 0.07130319 0.36545388 -0.51550284 -0.06412164 0.07130319 -0.06412164 -1.15315895
Cu 10.90558497 21.74499256 1.69982328 0.16856392 -0.15420865 0.04115973 -3.53624734 0.19130393 -0.00694751 0.43346139 -0.00694751 0.37206756 0.20859873 0.43346139 0.20859873 1.04897056
Cu 1.50882049 4.87746637 25.24509520 0.18284637 -0.05198550 -0.03949404 -3.66009312 -0.37632128 -0.31051179 0.23169586 -0.31051179 -0.29548993 0.16008877 0.23169586 0.16008877 0.75031937
Cu 7.24768290 11.46618639 2.88910846 0.14992348 -0.37062682 0.05098752 -3.53748651 0.69544141 -0.08317308 -0.20219051 -0.08317308 -0.04655288 -0.02400102 -0.20219051 -0.02400102 0.67056463
Cu 25.43100062 10.87772690 5.59850665 -0.02688397 0.42342101 -0.07679348 -3.61674652 0.18985396 -0.03378485 0.66258051 -0.03378485 -0.04370322 0.31504009 0.66258051 0.31504009 0.00133066
Cu 5.82818424 12.82784959 21.81594992 -0.22879837 -0.17765234 -0.11083225 -3.60418389 -0.29918420 -0.22638544 0.18494294 -0.22638544 -0.20196101 -0.79122509 0.18494294 -0.79122509 0.13528686
Cu 0.87779790 23.86865594 4.14289522 0.05061769 0.15133955 0.10928848 -3.65590420 0.06242949 -0.26279734 -0.00134903 -0.26279734 -0.21960529 -0.14827365 -0.00134903 -0.14827365 0.16783205
Cu 2.12184295 16.16712179 9.11271076 -0.52776146 0.03060576 -0.41998970 -3.61335636 -0.12067983 -0.41391748 0.13254875 -0.41391748 -0.16355928 -0.11433084 0.13254875 -0.11433084 -0.08244801
Cu 19.71266765 11.98659490 21.24710891 0.00425620 0.11642877 0.00742207 -3.65732823 -0.29844225 -0.03423491 -0.02842066 -0.03423491 -1.14955231 0.06302953 -0.02842066 0.06302953 -0.63868935
Cu 11.42441322 7.11280905 10.94682895 -0.28065650 0.11379057 0.50160916 -3.56409905 -0.21222337 0.43152110 -0.25152568 0.43152110 0.27819323 0.54433574 -0.25152568 0.54433574 0.49612181
Cu 16.62572588 18.76009824 23.90881956 -0.07279206 0.15404567 0.12321173 -3.59968286 -0.12399821 0.59898310 0.40165614 0.59898310 -0.24525816 0.04395178 0.40165614 0.04395178 -0.61492102
Cu 23.16906429 18.96287460 24.91421336 -0.28084621 0.09426246 -0.09450287 -3.66492465 0.23251797 -0.13396184 0.44629107 -0.13396184 0.12552018 0.40448408 0.44629107 0.40448408 -0.11730492
Cu 5.30723091 20.47168329 19.34547453 0.11391563 0.30367838 -0.26004530 -3.64070260 0.45493451 -0.33302152 0.00908648 -0.33302152 -0.41231496 0.33034493 0.00908648 0.33034493 -0.10489952
Cu 14.34151105 7.54805581 4.53956116 0.52298055 0.18321777 -0.23694152 -3.56418383 0.25006343 -0.22627978 0.06793615 -0.22627978 0.14967512 -0.44705895 0.06793615 -0.44705895 0.68638738
Cu 7.77750373 15.28604554 16.03710600 -0.17021853 -0.01703933 -0.03080666 -3.67321914 0.41804582 -0.37242627 0.19586916 -0.37242627 0.31193688 -0.13019936 0.19586916 -0.13019936 0.06539034
Cu 8.28918840 25.82497344 2.43648799 -0.04730935 -0.18509606 -0.19412822 -3.63637177 0.03048912 -0.31983135 0.29610399 -0.31983135 0.27821961 -0.12889980 0.29610399 -0.12889980 0.30217828
Cu 5.01909806 15.80816630 12.47154686 0.08750748 0.06551945 -0.18727667 -3.58562591 0.00241363 0.18658299 -0.04645946 0.18658299 0.21009366 -0.81898457 -0.04645946 -0.81898457 0.43688223
Cu 6.48206370 4.61210198 2.00947908 0.19635987 0.17547828 -0.00532920 -3.60839826 0.00243296 0.00577661 -0.25497134 0.00577661 0.06232758 -0.00182742 -0.25497134 -0.00182742 -0.17411886
Cu 22.05559658 12.75870214 21.59209391 0.10127624 -0.24304498 -0.03064096 -3.63129651 0.39757954 -0.34150508 -0.21124317 -0.34150508 -0.03998455 -0.13764056 -0.21124317 -0.13764056 -0.19924883
Cu 1.11586142 24.62612182 12.98764318 -0.00524034 0.38207474 -0.11724615 -3.65433990 0.57348034 -0.13240363 0.03436048 -0.13240363 0.62528050 -0.22397919 0.03436048 -0.22397919 0.12716672
Cu 3.68621912 10.12909737 18.72253711 0.27564370 -0.01095612 -0.18811982 -3.62140028 0.93528808 -0.50562034 -0.22099565 -0.50562034 -0.93190106 -0.21657220 -0.22099565 -0.21657220 -0.45679902
Cu 0.29107272 13.80549776 2.24494916 -0.35325462 -0.32685941 0.31395449 -3.65836725 -0.27552987 0.05836398 0.03880452 0.05836398 0.51319740 -0.62089747 0.03880452 -0.62089747 0.19101880
Cu 4.37947638 23.98640074 1.16039086 -0.10162633 -0.17758118 -0.01108836 -3.67088227 -0.43898649 -0.04509775 -0.19886572 -0.04509775 -0.06627008 0.58540753 -0.19886572 0.58540753 0.26509881
Cu 3.81735673 14.91541555 7.75549317 -0.18344541 -0.18420411 -0.21154608 -3.58804822 0.57346245 -0.19518437 -0.04046101 -0.19518437 -0.34246565 0.16549903 -0.04046101 0.16549903 -0.45780771
Cu 10.25812291 18.93289522 19.44916939 -0.05872135 0.39192543 0.63829057 -3.54146084 0.05605117 0.24247101 -0.27022008 0.24247101 0.09208934 -0.09260934 -0.27022008 -0.09260934 1.06268235
Cu 10.45413223 8.31838136 5.51588846 -0.01819962 0.26461431 -0.29116241 -3.52841560 0.10802002 -0.00284048 -0.28768563 -0.00284048 0.06515932 -0.30933880 -0.28768563 -0.30933880 -0.21889835
Cu 1.17461168 22.41751185 13.76196534 0.20655290 -0.37455284 -0.32427080 -3.61014807 -0.17433203 0.38481383 -0.07322795 0.38481383 0.79722605 -0.02679967 -0.07322795 -0.02679967 0.86794964
Cu 23.41216575 2.69729588 14.14939802 0.29346609 0.37641072 0.10263714 -3.68277755 0.14159631 -0.08754745 0.02056117 -0.08754745 -0.32702639 -0.07466822 0.02056117 -0.07466822 -0.27299123
Cu 21.28857873 22.93778887 4.58216677 0.23591078 0.24870113 -0.08448945 -3.65943193 -0.80714792 0.38758624 -0.13642178 0.38758624 -0.29088374 0.32950150 -0.13642178 0.32950150 0.66336433
Cu 21.23557473 19.35718249 23.11502771 0.13842628 -0.19698716 -0.33371063 -3.57566427 0.05346468 0.14861803 0.02691521 0.14861803 0.90163243 0.12492116 0.02691521 0.12492116 0.71998332
Cu 6.77114948 5.07970990 19.58434328 0.23652281 0.24645474 0.09976012 -3.62750706 -0.12489645 0.10548671 0.02028818 0.10548671 -0.45960772 -0.29478618 0.02028818 -0.29478618 -0.48024547
Cu 23.33624186 23.29673721 25.61943609 0.08003574 -0.32245308 -0.22437107 -3.58406227 -0.15677811 -0.11140738 0.38025247 -0.11140738 0.14820967 0.32635144 0.38025247 0.32635144 1.03612914
Cu 12.21437114 17.92092144 2.58602229 0.08208134 0.43025165 0.36197036 -3.59678251 1.24743854 -0.22984751 0.18618962 -0.22984751 1.20848244 0.21550729 0.18618962 0.21550729 0.39637760
Cu 24.13718761 10.75429582 15.50724923 0.01489133 0.00309299 -0.22198993 -3.63604985 -0.13949616 0.31520937 0.02090080 0.31520937 -0.58282339 0.60263477 0.02090080 0.60263477 -0.05391005
Cu 25.25346094 19.24476769 12.61392649 0.24145171 0.27932025 -0.15122798 -3.59450596 0.40814589 0.31439251 0.60980194 0.31439251 1.13817895 0.03893960 0.60980194 0.03893960 -0.02080886
Cu 1.74714302 1.98711114 3.12197217 0.06692220 0.34273728 -0.08339773 -3.72685304 -0.33924966 -0.13155570 0.16595481 -0.13155570 -0.42284970 0.07342797 0.16595481 0.07342797 -0.42188196
Cu 6.78778698 13.20563399 12.55899500 0.19758268 -0.10769015 0.01354127 -3.65586333 1.51015844 0.33154422 0.06495534 0.33154422 0.07022649 -0.11491916 0.06495534 -0.11491916 0.66265426
Cu 16.30898113 0.34515609 24.08399912 0.44435526 -0.30401832 0.14575710 -3.55445392 0.47696773 -0.67571033 -0.20335288 -0.67571033 0.00368476 0.02829316 -0.20335288 0.02829316 0.37312872
Cu 3.64113934 25.48705459 8.94686550 -0.00778945 -0.47213335 -0.38018457 -3.60944516 0.47399443 0.00648131 -0.20340728 0.00648131 0.09858133 -0.31592266 -0.20340728 -0.31592266 0.52152233
Cu 3.39467642 1.82070345 1.07067554 -0.17500017 0.01462770 -0.01230203 -3.74891637 -0.04740279 0.17287664 0.25997691 0.17287664 -0.42267844 0.35595603 0.25997691 0.35595603 -0.23098576
Cu 17.69116533 6.44564346 1.39896013 -0.09247427 -0.24178756 0.46766048 -3.49566399 0.34826021 -0.24679306 0.20110606 -0.24679306 0.91248245 0.05970926 0.20110606 0.05970926 0.75447678
Cu 22.63474395 22.82173284 17.42258242 -0.18493675 0.00126662 0.10773951 -3.56487830 0.25310527 -0.30961930 -0.17819428 -0.30961930 -0.09650360 0.01983402 -0.17819428 0.01983402 0.30696052
Cu 13.84474769 4.02966737 15.23394323 0.02243679 -0.04304032 -0.13115479 -3.56086940 0.70163180 -0.10689999 -0.05514858 -0.10689999 0.59032555 -0.17909086 -0.05514858 -0.17909086 -0.09003830
Cu 7.36684603 25.19573335 23.88053475 -0.32288856 0.00912142 0.25483396 -3.60399237 -0.09422769 -0.46528238 -0.51684081 -0.46528238 -0.42270555 -0.30584778 -0.51684081 -0.30584778 0.41871495
Cu 6.62066312 19.06262893 17.74555899 0.23391912 0.33443930 0.21865770 -3.71383251 -0.29151080 -0.04128253 0.24331013 -0.04128253 0.11664026 0.02024520 0.24331013 0.02024520 -0.03255236
Cu 19.73777190 7.13216237 7.76548733 -0.17100594 0.04505246 0.18168361 -3.55244081 -0.06192980 0.22495275 -0.42290158 0.22495275 0.79054570 0.50034196 -0.42290158 0.50034196 0.97567433
Cu 25.33710262 1.62744934 18.27302675 -0.13022713 0.12960087 0.12503847 -3.52056772 0.71411126 -0.11401536 0.55702787 -0.11401536 -0.22199643 0.11342392 0.55702787 0.11342392 0.54188539
Cu 0.71667563 5.60684320 14.64502238 -0.17004968 0.31278189 -0.07651354 -3.62237272 -0.22679963 0.05148157 0.20269729 0.05148157 0.09249376 0.19531938 0.20269729 0.19531938 0.67664715
Cu 19.37727323 25.32826912 1.59594952 -0.04648753 -0.11169874 -0.28799988 -3.71096174 -0.54758699 0.32487461 -0.04816369 0.32487461 -0.19344854 -0.16926350 -0.04816369 -0.16926350 -0.67959403
Cu 2.33087472 0.21841660 25.41243936 0.22855932 0.08379974 -0.12562987 -3.51438426 0.26078946 0.15620585 -0.13483460 0.15620585 1.06710852 0.11646176 -0.13483460 0.11646176 0.73591003
Cu 14.83160211 24.21192456 24.75091508 0.11378694 -0.02812009 0.12634173 -3.70480158 -0.69133635 -0.03656856 -0.15419407 -0.03656856 0.06169353 -0.20268749 -0.15419407 -0.20268749 -0.38642446
Cu 11.61052252 15.78113715 9.06239026 -0.37541440 -0.41250204 0.00969457 -3.64661987 0.29541479 -0.25266569 -0.57909569 -0.25266569 0.08265401 0.10310914 -0.57909569 0.10310914 0.26114383
Cu 10.65129825 9.55547467 12.14668293 0.30469568 0.43639483 0.04196794 -3.59189949 0.08393027 0.41357907 0.43207570 0.41357907 0.53598334 -0.60695740 0.43207570 -0.60695740 -0.02269013
Cu 12.65902112 20.37750225 23.59075922 -0.55886010 -0.07729804 0.42009248 -3.61045391 0.34414398 -0.03861574 0.30144453 -0.03861574 -0.47404815 -0.46827868 0.30144453 -0.46827868 0.29558759
Cu 4.06647518 24.78618725 11.20639632 0.09804552 -0.10355396 0.11619288 -3.70164316 -0.17571291 -0.02192956 0.33586346 -0.02192956 -0.16469311 -0.59189829 0.33586346 -0.59189829 0.18117437
Cu 14.39884298 13.94041814 22.71570263 -0.10006996 0.29709813 0.31745485 -3.60614086 -0.04862553 0.15876335 -0.38178705 0.15876335 -0.38520859 0.39777833 -0.38178705 0.39777833 0.17875596
Cu 1.56783022 18.88041759 15.61767047 0.14603421 0.13211824 0.18770391 -3.62259925 0.59362042 -0.47022675 -0.29573513 -0.47022675 -0.03003971 0.06469901 -0.29573513 0.06469901 -0.69585313
Cu 4.78357701 2.68911055 13.61182077 0.19783914 -0.08374016 0.21622156 -3.62800622 0.74929409 0.30045933 0.04757307 0.30045933 -0.17401380 -0.13055216 0.04757307 -0.13055216 0.14479007
Cu 9.57054167 1.24532883 19.25386260 -0.08124545 0.11911081 -0.01843215 -3.63497949 0.35065115 0.39633183 0.01817788 0.39633183 0.35076807 0.49290909 0.01817788 0.49290909 -1.07067918
Cu 24.80875132 5.94316409 17.45330619 -0.15766478 0.13906653 0.18770621 -3.74628695 -0.05716158 0.10106603 -0.14337232 0.10106603 -0.26885569 0.28356775 -0.14337232 0.28356775 -0.54760920
Cu 0.16285406 17.63165948 7.86457717 -0.03286314 0.09362213 -0.03092225 -3.61853294 -0.55988551 0.22197018 -0.47304158 0.22197018 -0.08606677 -0.16530726 -0.47304158 -0.16530726 -0.73774025
Cu 23.07326467 14.16073673 10.31965189 0.06698948 0.12233738 -0.60212941 -3.53601203 1.03635590 -0.22618698 -0.20898898 -0.22618698 0.55491194 -0.04785898 -0.20898898 -0.04785898 0.27806123
Cu 6.92646789 12.93855376 4.83739242 -0.09287184 -0.24821402 0.05819706 -3.64694950 -0.59838011 0.31636579 0.57383003 0.31636579 0.17968291 -0.26079864 0.57383003 -0.26079864 0.67160234
Cu 10.57187417 18.38516961 17.29678858 0.22210330 -0.18888239 -0.46168235 -3.57140857 -0.24544762 0.00593228 -0.32338502 0.00593228 0.37942815 0.32342931 -0.32338502 0.32342931 0.99303966
Cu 12.60318745 15.07719879 14.63905683 -0.20376551 0.11544816 -0.32926447 -3.66439082 -0.12803680 0.01188549 0.08757966 0.01188549 -0.38442662 -0.49668259 0.08757966 -0.49668259 -0.12268005
Cu 6.65544701 2.35365550 9.28366521 0.04270538 -0.17095555 0.00444010 -3.62627898 0.67336723 0.54934040 -0.42527318 0.54934040 0.53051892 -0.69306423 -0.42527318 -0.69306423 -0.01881988
Cu 2.92278804 4.90026348 19.96362712 -0.40876467 0.15327300 0.09546890 -3.54025903 0.55881854 -0.47351988 0.00199990 -0.47351988 0.68678075 0.17307556 0.00199990 0.17307556 -0.09159672
Cu 8.71040857 17.14179794 1.19693642 0.23873055 0.48070944 -0.33042358 -3.58285192 0.92851272 0.58679229 0.26292039 0.58679229 0.13586789 -0.19337237 0.26292039 -0.19337237 -0.14019044
Cu 6.97367653 16.66631094 22.28692620 -0.05038850 0.33773532 0.23741776 -3.52944758 1.20860992 -0.35359629 -0.17931529 -0.35359629 0.86522143 0.57680586 -0.17931529 0.57680586 0.28458105
Cu 2.63970704 2.52568406 5.40705440 0.06582904 0.22866012 0.09945678 -3.69850230 0.17722746 -0.35129767 -0.09360918 -0.35129767 0.08985322 0.40547762 -0.09360918 0.40547762 0.03575346
Cu 24.89618205 12.63871039 9.87784489 0.07623638 -0.01975642 -0.24804248 -3.66792353 0.39720195 -0.44648853 0.47619750 -0.44648853 0.18501475 -0.01117555 0.47619750 -0.01117555 -0.30474350
Cu 16.26620358 17.87829689 8.67240762 0.01907476 -0.33228568 -0.08509932 -3.64303210 0.86921588 -0.24731748 0.07612120 -0.24731748 0.21076867 0.45657913 0.07612120 0.45657913 -0.13203594
Cu 18.92557701 9.70698013 22.16246651 -0.08578273 0.10626300 -0.17354311 -3.70674660 -0.33086355 -0.03730318 0.12157332 -0.03730318 -0.53410828 0.11275032 0.12157332 0.11275032 -0.07429692
Cu 12.87340467 2.44226508 3.41875795 -0.17726903 -0.49358848 0.31590387 -3.59950297 -0.29977755 0.01290189 0.62028389 0.01290189 0.64471451 -0.10012709 0.62028389 -0.10012709 -0.44724766
Cu 11.53215040 12.12418065 3.23634225 0.31274059 0.31359841 0.18707665 -3.65851765 -0.09558237 -0.02422652 0.30188890 -0.02422652 -0.13002294 0.58955496 0.30188890 0.58955496 -0.23030190