2
Lattice="4.0 0.0 0.0 0.0 4.0 0.0 0.0 0.0 4.0" Origin="-1.0 -2.0 -3.0" Properties=species:S:1:pos:R:3:vel:R:3:forces:R:3 pbc="T T F"
Al 0.5 0.5 0.5 0.1 0.2 0.3 -0.01 0.0 0.0
Cu 1.5 1.5 1.5 0.0 0.0 0.0  0.01 0.0 0.0
